                         Program Version 6.0.0  -   RELEASE  -
|  1>
|  2>     ! HF MP2 cc-pVTZ LooseSCF Opt PAL6
|  3>
|  4>     * xyz 0 1
|  5>     O       0.000000     0.000000     0.000000
|  6>     H       -0.886668    0.362746     0.000000
|  7>     H       -0.129187    -0.949250    0.000000
|  8>
|  9>     O       2.800000     0.000000     0.000000
| 10>     H       3.686668     0.362746     0.000000
| 11>     H       2.929187     -0.949250     0.000000
| 12>     *
| 13>
| 14>     %geom
| 15>         Constraints
| 16>             { B 0 1 C }
| 17>             { B 0 2 C }
| 18>             { B 3 4 C }
| 19>             { B 3 5 C }
| 20>             { A 1 0 2 C }
| 21>             { A 4 3 5 C }
| 22>             { A 1 0 3 C }
| 23>             { A 4 3 0 C }
| 24>         end
| 25>         Scan
| 26>             B 0 3 = 2.8, 5, 5  # Vary the O-O distance
| 27>         end
| 28>     end
| 29>
| 30>     %mp2
| 31>         Density relaxed
| 32>     end
| 33>
| 34>     %scf
| 35>         ConvForced true  # Ensure SCF convergence
| 36>     end
| 37>
| 38>                               ****END OF INPUT****
 Total Charge           Charge          ....    0
 Multiplicity           Mult            ....    1
 Number of Electrons    NEL             ....   20
MP2 TOTAL ENERGY:     -152.631762864 Eh
FINAL SINGLE POINT ENERGY      -152.631762863955
                    ***********************HURRAY********************
MP2 TOTAL ENERGY:     -152.631760117 Eh
FINAL SINGLE POINT ENERGY      -152.631760117308
MP2 TOTAL ENERGY:     -152.634526592 Eh
FINAL SINGLE POINT ENERGY      -152.634526592089
                    ***********************HURRAY********************
MP2 TOTAL ENERGY:     -152.634624070 Eh
FINAL SINGLE POINT ENERGY      -152.634624070419
MP2 TOTAL ENERGY:     -152.635372503 Eh
FINAL SINGLE POINT ENERGY      -152.635372503453
MP2 TOTAL ENERGY:     -152.635465096 Eh
FINAL SINGLE POINT ENERGY      -152.635465096057
MP2 TOTAL ENERGY:     -152.635767916 Eh
FINAL SINGLE POINT ENERGY      -152.635767915616
MP2 TOTAL ENERGY:     -152.635868920 Eh
FINAL SINGLE POINT ENERGY      -152.635868919858
MP2 TOTAL ENERGY:     -152.636090922 Eh
FINAL SINGLE POINT ENERGY      -152.636090921849

CARTESIAN COORDINATES (ANGSTROEM)
---------------------------------
  O     -1.099704    0.001995   -0.000000
  H     -1.988242    0.359842   -0.000002
  H     -1.218391   -0.948340    0.000002
  O      3.899704    0.001995    0.000003
  H      4.788242    0.359842   -0.000000
  H      4.018391   -0.948340   -0.000003

 Multiplicity           Mult            ....    1
 Number of Electrons    NEL             ....   20
 Basis Dimension        Dim             ....  116

ORBITAL ENERGIES
----------------

  NO   OCC          E(Eh)            E(eV)
   0   2.0000     -20.548338      -559.1487
   1   2.0000     -20.548338      -559.1487
   2   2.0000      -1.338759       -36.4295
   3   2.0000      -1.338752       -36.4293
   4   2.0000      -0.703726       -19.1494
   5   2.0000      -0.703666       -19.1477
   6   2.0000      -0.570156       -15.5147
   7   2.0000      -0.569957       -15.5093
   8   2.0000      -0.497847       -13.5471
   9   2.0000      -0.497820       -13.5464
  10   0.0000       0.143699         3.9102
  11   0.0000       0.150912         4.1065
  12   0.0000       0.205078         5.5804
  13   0.0000       0.212377         5.7791
  14   0.0000       0.546371        14.8675

MULLIKEN ATOMIC CHARGES
-----------------------
   0 O :   -0.467074
   1 H :    0.233429
   2 H :    0.233645
   3 O :   -0.467074
   4 H :    0.233429
   5 H :    0.233645
Sum of atomic charges:    0.0000000

LOEWDIN ATOMIC CHARGES
----------------------
   0 O :    0.379320
   1 H :   -0.189623
   2 H :   -0.189696
   3 O :    0.379320
   4 H :   -0.189623
   5 H :   -0.189696

  Mayer bond orders larger than 0.100000
B(  0-O ,  1-H ) :   0.9597 B(  0-O ,  2-H ) :   0.9603 B(  3-O ,  4-H ) :   0.9597
B(  3-O ,  5-H ) :   0.9603

MP2 TOTAL ENERGY:     -152.636197449 Eh
FINAL SINGLE POINT ENERGY      -152.636197449282

DIPOLE MOMENT
-------------

Method             : MP2
Type of density    : Electron Density
Multiplicity       :   1
Level              : Relaxed density
Irrep              :   0
Energy             :     0.0000000000000000 Eh
Relativity type    :
Basis              : AO
                                X                 Y                 Z
Electronic contribution:      0.000000000       0.229208366       0.000001439
Nuclear contribution   :     -0.000000000      -0.986326869      -0.000006291
                        -----------------------------------------
Total Dipole Moment    :     -0.000000000      -0.757118503      -0.000004852
                        -----------------------------------------
Magnitude (a.u.)       :      0.757118503
Magnitude (Debye)      :      1.924442296

Rotational constants in cm-1:             8.266462             0.071158             0.070550
Rotational constants in MHz :        247822.307860          2133.249926          2115.043668

                             ****ORCA TERMINATED NORMALLY****
TOTAL RUN TIME: 0 days 0 hours 0 minutes 42 seconds 777 msec
