                         Program Version 6.0.0  -   RELEASE  -
|  1> # MP2 scan of the potential energy curve for Ar...Ar
|  2> ! MP2 aug-cc-pVTZ TightSCF opt PAL2
|  3> %geom Scan
|  4>       B 0 1 = 2.8, 5.0, 5 # distance that will be scanned
|  5>       end
|  6> end
|  7> * gzmt 0 1
|  8> Ar
|  9> Ar  1  3.600
| 10> **                         ****END OF INPUT****
 Total Charge           Charge          ....    0
 Multiplicity           Mult            ....    1
 Number of Electrons    NEL             ....   36
MP2 TOTAL ENERGY:    -1054.040348462 Eh
FINAL SINGLE POINT ENERGY     -1054.040348461772
                    ***********************HURRAY********************
MP2 TOTAL ENERGY:    -1054.040348471 Eh
FINAL SINGLE POINT ENERGY     -1054.040348471259
MP2 TOTAL ENERGY:    -1054.048544792 Eh
FINAL SINGLE POINT ENERGY     -1054.048544792467
                    ***********************HURRAY********************
MP2 TOTAL ENERGY:    -1054.048544788 Eh
FINAL SINGLE POINT ENERGY     -1054.048544788450
MP2 TOTAL ENERGY:    -1054.049052824 Eh
FINAL SINGLE POINT ENERGY     -1054.049052823792
MP2 TOTAL ENERGY:    -1054.049052806 Eh
FINAL SINGLE POINT ENERGY     -1054.049052806112
MP2 TOTAL ENERGY:    -1054.048859877 Eh
FINAL SINGLE POINT ENERGY     -1054.048859877351
MP2 TOTAL ENERGY:    -1054.048859871 Eh
FINAL SINGLE POINT ENERGY     -1054.048859871332
MP2 TOTAL ENERGY:    -1054.048723237 Eh
FINAL SINGLE POINT ENERGY     -1054.048723237258

CARTESIAN COORDINATES (ANGSTROEM)
---------------------------------
  Ar    -0.275000    0.000000    0.000000
  Ar     4.725000    0.000000    0.000000

 Multiplicity           Mult            ....    1
 Number of Electrons    NEL             ....   36
 Basis Dimension        Dim             ....  100

ORBITAL ENERGIES
----------------

  NO   OCC          E(Eh)            E(eV)
   0   2.0000    -118.612046     -3227.5979
   1   2.0000    -118.612046     -3227.5979
   2   2.0000     -12.323136      -335.3296
   3   2.0000     -12.323136      -335.3296
   4   2.0000      -9.572108      -260.4703
   5   2.0000      -9.572108      -260.4703
   6   2.0000      -9.572108      -260.4703
   7   2.0000      -9.572108      -260.4703
   8   2.0000      -9.572107      -260.4703
   9   2.0000      -9.572107      -260.4703
  10   2.0000      -1.277892       -34.7732
  11   2.0000      -1.277837       -34.7717
  12   2.0000      -0.592104       -16.1120
  13   2.0000      -0.591420       -16.0933
  14   2.0000      -0.591420       -16.0933
  15   2.0000      -0.591268       -16.0892
  16   2.0000      -0.591268       -16.0892
  17   2.0000      -0.590596       -16.0709
  18   0.0000       0.115588         3.1453
  19   0.0000       0.117983         3.2105
  20   0.0000       0.117983         3.2105
  21   0.0000       0.125254         3.4083
  22   0.0000       0.145342         3.9550

MULLIKEN ATOMIC CHARGES
-----------------------
   0 Ar:   -0.000000
   1 Ar:   -0.000000
Sum of atomic charges:   -0.0000000

LOEWDIN ATOMIC CHARGES
----------------------
   0 Ar:    0.000000
   1 Ar:    0.000000

MP2 TOTAL ENERGY:    -1054.048723234 Eh
FINAL SINGLE POINT ENERGY     -1054.048723234358

DIPOLE MOMENT
-------------

Method             : MP2
Type of density    : Electron Density
Multiplicity       :   1
Level              : Relaxed density
Irrep              :   0
Energy             :     0.0000000000000000 Eh
Relativity type    :
Basis              : AO
                                X                 Y                 Z
Electronic contribution:     -0.000000000      -0.000000000       0.000000000
Nuclear contribution   :     -0.000000000       0.000000000       0.000000000
                        -----------------------------------------
Total Dipole Moment    :     -0.000000000      -0.000000000       0.000000000
                        -----------------------------------------
Magnitude (a.u.)       :      0.000000000
Magnitude (Debye)      :      0.000000000

Rotational constants in cm-1:             0.000000             0.033759             0.033759
Rotational constants in MHz :             0.000000          1012.074656          1012.074656

                             ****ORCA TERMINATED NORMALLY****
TOTAL RUN TIME: 0 days 0 hours 2 minutes 11 seconds 930 msec
