                         Program Version 6.0.0  -   RELEASE  -
|  1> # MP2 scan of the potential energy curve for Ar...Ar
|  2>     ! HF MP2 cc-pVTZ TightSCF Opt PAL2
|  3>
|  4>     * xyz 0 1
|  5>     Ar      0.000000     0.000000     0.000000
|  6>     Ar      2.800000     0.000000     0.000000
|  7>     *
|  8>
|  9>     %geom
| 10>         Constraints
| 11>         end
| 12>         Scan
| 13>             B 0 1 = 2.8, 5, 12
| 14>         end
| 15>     end
| 16>
| 17>     %mp2
| 18>         Density relaxed
| 19>     end
| 20>
| 21>     %scf
| 22>         ConvForced true  # Ensure SCF convergence
| 23>     endd                         ****END OF INPUT****
 Total Charge           Charge          ....    0
 Multiplicity           Mult            ....    1
 Number of Electrons    NEL             ....   36
MP2 TOTAL ENERGY:    -1054.028571881 Eh
FINAL SINGLE POINT ENERGY     -1054.028571880929
                    ***********************HURRAY********************
MP2 TOTAL ENERGY:    -1054.028571900 Eh
FINAL SINGLE POINT ENERGY     -1054.028571899840
MP2 TOTAL ENERGY:    -1054.034022444 Eh
FINAL SINGLE POINT ENERGY     -1054.034022444069
                    ***********************HURRAY********************
MP2 TOTAL ENERGY:    -1054.034022432 Eh
FINAL SINGLE POINT ENERGY     -1054.034022432276
MP2 TOTAL ENERGY:    -1054.036565858 Eh
FINAL SINGLE POINT ENERGY     -1054.036565857839
MP2 TOTAL ENERGY:    -1054.036565802 Eh
FINAL SINGLE POINT ENERGY     -1054.036565801894
FINAL SINGLE POINT ENERGY     -1054.037687225377
FINAL SINGLE POINT ENERGY     -1054.037687207680
FINAL SINGLE POINT ENERGY     -1054.038140934663
FINAL SINGLE POINT ENERGY     -1054.038140916589
FINAL SINGLE POINT ENERGY     -1054.038302503436
FINAL SINGLE POINT ENERGY     -1054.038302509189
FINAL SINGLE POINT ENERGY     -1054.038266340669
FINAL SINGLE POINT ENERGY     -1054.038266340990
MP2 TOTAL ENERGY:    -1054.038229223 Eh
FINAL SINGLE POINT ENERGY     -1054.038229223478
MP2 TOTAL ENERGY:    -1054.038229221 Eh
FINAL SINGLE POINT ENERGY     -1054.038229221499
MP2 TOTAL ENERGY:    -1054.038196729 Eh
FINAL SINGLE POINT ENERGY     -1054.038196728519
MP2 TOTAL ENERGY:    -1054.038196726 Eh
FINAL SINGLE POINT ENERGY     -1054.038196726436
MP2 TOTAL ENERGY:    -1054.038170531 Eh
FINAL SINGLE POINT ENERGY     -1054.038170530838

CARTESIAN COORDINATES (ANGSTROEM)
---------------------------------
  Ar    -1.100000    0.000000    0.000000
  Ar     3.900000    0.000000    0.000000

 Multiplicity           Mult            ....    1
 Number of Electrons    NEL             ....   36
 Basis Dimension        Dim             ....   68

ORBITAL ENERGIES
----------------

  NO   OCC          E(Eh)            E(eV)
   0   2.0000    -118.609303     -3227.5232
   1   2.0000    -118.609303     -3227.5232
   2   2.0000     -12.320994      -335.2713
   3   2.0000     -12.320994      -335.2713
   4   2.0000      -9.569932      -260.4111
   5   2.0000      -9.569931      -260.4111
   6   2.0000      -9.569931      -260.4111
   7   2.0000      -9.569931      -260.4111
   8   2.0000      -9.569931      -260.4111
   9   2.0000      -9.569931      -260.4111
  10   2.0000      -1.276528       -34.7361
  11   2.0000      -1.276478       -34.7347
  12   2.0000      -0.590828       -16.0772
  13   2.0000      -0.590203       -16.0602
  14   2.0000      -0.590203       -16.0602
  15   2.0000      -0.590080       -16.0569
  16   2.0000      -0.590080       -16.0569
  17   2.0000      -0.589449       -16.0397
  18   0.0000       0.526931        14.3385
  19   0.0000       0.547936        14.9101
  20   0.0000       0.547936        14.9101
  21   0.0000       0.552387        15.0312
  22   0.0000       0.552387        15.0312

MULLIKEN ATOMIC CHARGES
-----------------------
   0 Ar:    0.000000
   1 Ar:   -0.000000
Sum of atomic charges:   -0.0000000

LOEWDIN ATOMIC CHARGES
----------------------
   0 Ar:    0.000000
   1 Ar:   -0.000000

MP2 TOTAL ENERGY:    -1054.038170529 Eh
FINAL SINGLE POINT ENERGY     -1054.038170528851

DIPOLE MOMENT
-------------

Method             : MP2
Type of density    : Electron Density
Multiplicity       :   1
Level              : Relaxed density
Irrep              :   0
Energy             :     0.0000000000000000 Eh
Relativity type    :
Basis              : AO
                                X                 Y                 Z
Electronic contribution:     -0.000000000      -0.000000000      -0.000000000
Nuclear contribution   :      0.000000000       0.000000000       0.000000000
                        -----------------------------------------
Total Dipole Moment    :     -0.000000000      -0.000000000      -0.000000000
                        -----------------------------------------
Magnitude (a.u.)       :      0.000000000
Magnitude (Debye)      :      0.000000000

Rotational constants in cm-1:             0.000000             0.033759             0.033759
Rotational constants in MHz :             0.000000          1012.074656          1012.074656

                             ****ORCA TERMINATED NORMALLY****
TOTAL RUN TIME: 0 days 0 hours 2 minutes 59 seconds 509 msec
