                         Program Version 6.0.0  -   RELEASE  -
|  1> # MP2 scan of the potential energy curve for Ar...Ar
|  2>         ! HFLD aug-cc-pvdz aug-cc-pvdz/C verytightscf
|  3>         *xyz 0 1
|  4>         Ar(1)	0.000000000000000	0.000000000000000	0.00000000000000
|  5>         Ar(2)	3.8	0.000000000000000	0.00000000000000
|  6>         **                         ****END OF INPUT****

CARTESIAN COORDINATES (ANGSTROEM)
---------------------------------
  Ar     0.000000    0.000000    0.000000
  Ar     3.800000    0.000000    0.000000

 Total Charge           Charge          ....    0
 Multiplicity           Mult            ....    1
 Number of Electrons    NEL             ....   36
 Basis Dimension        Dim             ....   54

ORBITAL ENERGIES
----------------

  NO   OCC          E(Eh)            E(eV)
   0   2.0000    -118.610301     -3227.5504
   1   2.0000    -118.610301     -3227.5504
   2   2.0000     -12.322487      -335.3119
   3   2.0000     -12.322479      -335.3117
   4   2.0000      -9.571067      -260.4420
   5   2.0000      -9.571067      -260.4420
   6   2.0000      -9.571067      -260.4420
   7   2.0000      -9.571067      -260.4420
   8   2.0000      -9.571062      -260.4418
   9   2.0000      -9.571062      -260.4418
  10   2.0000      -1.279396       -34.8141
  11   2.0000      -1.278025       -34.7768
  12   2.0000      -0.599215       -16.3055
  13   2.0000      -0.593031       -16.1372
  14   2.0000      -0.593031       -16.1372
  15   2.0000      -0.591076       -16.0840
  16   2.0000      -0.591076       -16.0840
  17   2.0000      -0.585100       -15.9214
  18   0.0000       0.133802         3.6409
  19   0.0000       0.136791         3.7223
  20   0.0000       0.136791         3.7223
  21   0.0000       0.145573         3.9612
  22   0.0000       0.173946         4.7333

MULLIKEN ATOMIC CHARGES
-----------------------
   0 Ar:    0.000000
   1 Ar:    0.000000
Sum of atomic charges:    0.0000000

LOEWDIN ATOMIC CHARGES
----------------------
   0 Ar:   -0.000000
   1 Ar:   -0.000000

E(0)                                       ...  -1053.601647659
E(0)                                       ...  -1053.601647659
E(CORR)(strong-pairs)                      ...     -0.000583990
E(CORR)(weak-pairs)                        ...     -0.000015770
E(CORR)(corrected)                         ...     -0.000599760
E(TOT)                                     ...  -1053.602247419
FINAL SINGLE POINT ENERGY     -1053.602233548173

DIPOLE MOMENT
-------------

Method             : SCF
Type of density    : Electron Density
Multiplicity       :   1
Irrep              :   0
Energy             : -1053.6016476586748922 Eh
Relativity type    :
Basis              : AO
                                X                 Y                 Z
Electronic contribution:      0.000000000       0.000000000      -0.000000000
Nuclear contribution   :     -0.000000000       0.000000000       0.000000000
                        -----------------------------------------
Total Dipole Moment    :     -0.000000000       0.000000000      -0.000000000
                        -----------------------------------------
Magnitude (a.u.)       :      0.000000000
Magnitude (Debye)      :      0.000000000

Rotational constants in cm-1:             0.000000             0.058447             0.058447
Rotational constants in MHz :             0.000000          1752.206815          1752.206815

                             ****ORCA TERMINATED NORMALLY****
TOTAL RUN TIME: 0 days 0 hours 0 minutes 3 seconds 929 msec
