                         Program Version 6.0.0  -   RELEASE  -
|  1> # MP2 scan of the potential energy curve for Ar...Ar
|  2>         ! HFLD aug-cc-pvdz aug-cc-pvdz/C verytightscf
|  3>         *xyz 0 1
|  4>         Ar(1)	0.000000000000000	0.000000000000000	0.00000000000000
|  5>         Ar(2)	3.4	0.000000000000000	0.00000000000000
|  6>         **                         ****END OF INPUT****

CARTESIAN COORDINATES (ANGSTROEM)
---------------------------------
  Ar     0.000000    0.000000    0.000000
  Ar     3.400000    0.000000    0.000000

 Total Charge           Charge          ....    0
 Multiplicity           Mult            ....    1
 Number of Electrons    NEL             ....   36
 Basis Dimension        Dim             ....   54

ORBITAL ENERGIES
----------------

  NO   OCC          E(Eh)            E(eV)
   0   2.0000    -118.609631     -3227.5321
   1   2.0000    -118.609631     -3227.5321
   2   2.0000     -12.321915      -335.2964
   3   2.0000     -12.321904      -335.2960
   4   2.0000      -9.570490      -260.4263
   5   2.0000      -9.570490      -260.4263
   6   2.0000      -9.570489      -260.4262
   7   2.0000      -9.570489      -260.4262
   8   2.0000      -9.570488      -260.4262
   9   2.0000      -9.570486      -260.4262
  10   2.0000      -1.280515       -34.8446
  11   2.0000      -1.276636       -34.7390
  12   2.0000      -0.606707       -16.5093
  13   2.0000      -0.594136       -16.1673
  14   2.0000      -0.594136       -16.1673
  15   2.0000      -0.589527       -16.0418
  16   2.0000      -0.589527       -16.0418
  17   2.0000      -0.577601       -15.7173
  18   0.0000       0.129141         3.5141
  19   0.0000       0.138620         3.7720
  20   0.0000       0.138620         3.7720
  21   0.0000       0.148346         4.0367
  22   0.0000       0.175933         4.7874

MULLIKEN ATOMIC CHARGES
-----------------------
   0 Ar:   -0.000000
   1 Ar:   -0.000000
Sum of atomic charges:   -0.0000000

LOEWDIN ATOMIC CHARGES
----------------------
   0 Ar:   -0.000000
   1 Ar:   -0.000000

E(0)                                       ...  -1053.600491365
E(0)                                       ...  -1053.600491365
E(CORR)(strong-pairs)                      ...     -0.001162215
E(CORR)(weak-pairs)                        ...     -0.000037703
E(CORR)(corrected)                         ...     -0.001199919
E(TOT)                                     ...  -1053.601691284
FINAL SINGLE POINT ENERGY     -1053.601600520258

DIPOLE MOMENT
-------------

Method             : SCF
Type of density    : Electron Density
Multiplicity       :   1
Irrep              :   0
Energy             : -1053.6004913651972856 Eh
Relativity type    :
Basis              : AO
                                X                 Y                 Z
Electronic contribution:      0.000000000      -0.000000000       0.000000000
Nuclear contribution   :     -0.000000000       0.000000000       0.000000000
                        -----------------------------------------
Total Dipole Moment    :     -0.000000000      -0.000000000       0.000000000
                        -----------------------------------------
Magnitude (a.u.)       :      0.000000000
Magnitude (Debye)      :      0.000000000

Rotational constants in cm-1:             0.000000             0.073009             0.073009
Rotational constants in MHz :             0.000000          2188.742769          2188.742769

                             ****ORCA TERMINATED NORMALLY****
TOTAL RUN TIME: 0 days 0 hours 0 minutes 4 seconds 78 msec
