                         Program Version 6.0.0  -   RELEASE  -
|  1> # MP2 scan of the potential energy curve for Ar...Ar
|  2>         ! HFLD aug-cc-pvdz aug-cc-pvdz/C verytightscf
|  3>         *xyz 0 1
|  4>         Ar(1)	0.000000000000000	0.000000000000000	0.00000000000000
|  5>         Ar(2)	4.6	0.000000000000000	0.00000000000000
|  6>         **                         ****END OF INPUT****

CARTESIAN COORDINATES (ANGSTROEM)
---------------------------------
  Ar     0.000000    0.000000    0.000000
  Ar     4.600000    0.000000    0.000000

 Total Charge           Charge          ....    0
 Multiplicity           Mult            ....    1
 Number of Electrons    NEL             ....   36
 Basis Dimension        Dim             ....   54

ORBITAL ENERGIES
----------------

  NO   OCC          E(Eh)            E(eV)
   0   2.0000    -118.610556     -3227.5573
   1   2.0000    -118.610556     -3227.5573
   2   2.0000     -12.322749      -335.3191
   3   2.0000     -12.322742      -335.3189
   4   2.0000      -9.571322      -260.4489
   5   2.0000      -9.571322      -260.4489
   6   2.0000      -9.571320      -260.4489
   7   2.0000      -9.571320      -260.4489
   8   2.0000      -9.571320      -260.4489
   9   2.0000      -9.571320      -260.4489
  10   2.0000      -1.278922       -34.8012
  11   2.0000      -1.278765       -34.7970
  12   2.0000      -0.593819       -16.1586
  13   2.0000      -0.592382       -16.1195
  14   2.0000      -0.592382       -16.1195
  15   2.0000      -0.592035       -16.1101
  16   2.0000      -0.592035       -16.1101
  17   2.0000      -0.590632       -16.0719
  18   0.0000       0.133635         3.6364
  19   0.0000       0.136133         3.7044
  20   0.0000       0.136133         3.7044
  21   0.0000       0.142348         3.8735
  22   0.0000       0.168253         4.5784

MULLIKEN ATOMIC CHARGES
-----------------------
   0 Ar:    0.000000
   1 Ar:    0.000000
Sum of atomic charges:    0.0000000

LOEWDIN ATOMIC CHARGES
----------------------
   0 Ar:    0.000000
   1 Ar:    0.000000

E(0)                                       ...  -1053.601954859
E(0)                                       ...  -1053.601954859
E(CORR)(strong-pairs)                      ...     -0.000096826
E(CORR)(weak-pairs)                        ...     -0.000067591
E(CORR)(corrected)                         ...     -0.000164417
E(TOT)                                     ...  -1053.602119276
FINAL SINGLE POINT ENERGY     -1053.602118956110

DIPOLE MOMENT
-------------

Method             : SCF
Type of density    : Electron Density
Multiplicity       :   1
Irrep              :   0
Energy             : -1053.6019548591816601 Eh
Relativity type    :
Basis              : AO
                                X                 Y                 Z
Electronic contribution:      0.000000000      -0.000000000       0.000000000
Nuclear contribution   :     -0.000000000       0.000000000       0.000000000
                        -----------------------------------------
Total Dipole Moment    :      0.000000000      -0.000000000       0.000000000
                        -----------------------------------------
Magnitude (a.u.)       :      0.000000000
Magnitude (Debye)      :      0.000000000

Rotational constants in cm-1:             0.000000             0.039886             0.039886
Rotational constants in MHz :             0.000000          1195.740379          1195.740379

                             ****ORCA TERMINATED NORMALLY****
TOTAL RUN TIME: 0 days 0 hours 0 minutes 3 seconds 778 msec
