                         Program Version 6.0.0  -   RELEASE  -
|  1> # MP2 scan of the potential energy curve for Ar...Ar
|  2>         ! HFLD aug-cc-pvdz aug-cc-pvdz/C verytightscf
|  3>         *xyz 0 1
|  4>         Ar(1)	0.000000000000000	0.000000000000000	0.00000000000000
|  5>         Ar(2)	3.0	0.000000000000000	0.00000000000000
|  6>         **                         ****END OF INPUT****

CARTESIAN COORDINATES (ANGSTROEM)
---------------------------------
  Ar     0.000000    0.000000    0.000000
  Ar     3.000000    0.000000    0.000000

 Total Charge           Charge          ....    0
 Multiplicity           Mult            ....    1
 Number of Electrons    NEL             ....   36
 Basis Dimension        Dim             ....   54

ORBITAL ENERGIES
----------------

  NO   OCC          E(Eh)            E(eV)
   0   2.0000    -118.607731     -3227.4804
   1   2.0000    -118.607730     -3227.4804
   2   2.0000     -12.320383      -335.2547
   3   2.0000     -12.320361      -335.2541
   4   2.0000      -9.568952      -260.3844
   5   2.0000      -9.568950      -260.3844
   6   2.0000      -9.568915      -260.3834
   7   2.0000      -9.568915      -260.3834
   8   2.0000      -9.568913      -260.3834
   9   2.0000      -9.568913      -260.3834
  10   2.0000      -1.283990       -34.9391
  11   2.0000      -1.273120       -34.6433
  12   2.0000      -0.621626       -16.9153
  13   2.0000      -0.596879       -16.2419
  14   2.0000      -0.596879       -16.2419
  15   2.0000      -0.585987       -15.9455
  16   2.0000      -0.585987       -15.9455
  17   2.0000      -0.562638       -15.3101
  18   0.0000       0.124460         3.3867
  19   0.0000       0.141129         3.8403
  20   0.0000       0.141129         3.8403
  21   0.0000       0.149144         4.0584
  22   0.0000       0.177525         4.8307

MULLIKEN ATOMIC CHARGES
-----------------------
   0 Ar:    0.000000
   1 Ar:   -0.000000
Sum of atomic charges:    0.0000000

LOEWDIN ATOMIC CHARGES
----------------------
   0 Ar:    0.000000
   1 Ar:    0.000000

E(0)                                       ...  -1053.595608697
E(0)                                       ...  -1053.595608697
E(CORR)(strong-pairs)                      ...     -0.002387123
E(CORR)(weak-pairs)                        ...     -0.000057758
E(CORR)(corrected)                         ...     -0.002444881
E(TOT)                                     ...  -1053.598053579
FINAL SINGLE POINT ENERGY     -1053.597656386264

DIPOLE MOMENT
-------------

Method             : SCF
Type of density    : Electron Density
Multiplicity       :   1
Irrep              :   0
Energy             : -1053.5956086974567825 Eh
Relativity type    :
Basis              : AO
                                X                 Y                 Z
Electronic contribution:      0.000000000       0.000000000      -0.000000000
Nuclear contribution   :     -0.000000000       0.000000000       0.000000000
                        -----------------------------------------
Total Dipole Moment    :     -0.000000000       0.000000000      -0.000000000
                        -----------------------------------------
Magnitude (a.u.)       :      0.000000000
Magnitude (Debye)      :      0.000000000

Rotational constants in cm-1:             0.000000             0.093775             0.093775
Rotational constants in MHz :             0.000000          2811.318490          2811.318490

                             ****ORCA TERMINATED NORMALLY****
TOTAL RUN TIME: 0 days 0 hours 0 minutes 4 seconds 425 msec
