                         Program Version 6.0.0  -   RELEASE  -
|  1> # MP2 scan of the potential energy curve for Ar...Ar
|  2>         ! HFLD aug-cc-pvdz aug-cc-pvdz/C verytightscf
|  3>         *xyz 0 1
|  4>         Ar(1)	0.000000000000000	0.000000000000000	0.00000000000000
|  5>         Ar(2)	2.8	0.000000000000000	0.00000000000000
|  6>         **                         ****END OF INPUT****

CARTESIAN COORDINATES (ANGSTROEM)
---------------------------------
  Ar     0.000000    0.000000    0.000000
  Ar     2.800000    0.000000    0.000000

 Total Charge           Charge          ....    0
 Multiplicity           Mult            ....    1
 Number of Electrons    NEL             ....   36
 Basis Dimension        Dim             ....   54

ORBITAL ENERGIES
----------------

  NO   OCC          E(Eh)            E(eV)
   0   2.0000    -118.605738     -3227.4262
   1   2.0000    -118.605737     -3227.4262
   2   2.0000     -12.318853      -335.2130
   3   2.0000     -12.318825      -335.2123
   4   2.0000      -9.567421      -260.3428
   5   2.0000      -9.567420      -260.3427
   6   2.0000      -9.567324      -260.3401
   7   2.0000      -9.567324      -260.3401
   8   2.0000      -9.567321      -260.3400
   9   2.0000      -9.567321      -260.3400
  10   2.0000      -1.287940       -35.0466
  11   2.0000      -1.269761       -34.5520
  12   2.0000      -0.633603       -17.2412
  13   2.0000      -0.599609       -16.3162
  14   2.0000      -0.599609       -16.3162
  15   2.0000      -0.582840       -15.8599
  16   2.0000      -0.582840       -15.8599
  17   2.0000      -0.550266       -14.9735
  18   0.0000       0.122253         3.3267
  19   0.0000       0.142496         3.8775
  20   0.0000       0.142496         3.8775
  21   0.0000       0.149077         4.0566
  22   0.0000       0.178214         4.8494

MULLIKEN ATOMIC CHARGES
-----------------------
   0 Ar:    0.000000
   1 Ar:   -0.000000
Sum of atomic charges:    0.0000000

LOEWDIN ATOMIC CHARGES
----------------------
   0 Ar:   -0.000000
   1 Ar:    0.000000

E(0)                                       ...  -1053.588945057
E(0)                                       ...  -1053.588945057
E(CORR)(strong-pairs)                      ...     -0.003413415
E(CORR)(weak-pairs)                        ...     -0.000064063
E(CORR)(corrected)                         ...     -0.003477477
E(TOT)                                     ...  -1053.592422534
FINAL SINGLE POINT ENERGY     -1053.591714527565

DIPOLE MOMENT
-------------

Method             : SCF
Type of density    : Electron Density
Multiplicity       :   1
Irrep              :   0
Energy             : -1053.5889450566544383 Eh
Relativity type    :
Basis              : AO
                                X                 Y                 Z
Electronic contribution:     -0.000000000       0.000000000      -0.000000000
Nuclear contribution   :      0.000000000       0.000000000       0.000000000
                        -----------------------------------------
Total Dipole Moment    :     -0.000000000       0.000000000      -0.000000000
                        -----------------------------------------
Magnitude (a.u.)       :      0.000000000
Magnitude (Debye)      :      0.000000000

Rotational constants in cm-1:             0.000000             0.107650             0.107650
Rotational constants in MHz :             0.000000          3227.278879          3227.278879

                             ****ORCA TERMINATED NORMALLY****
TOTAL RUN TIME: 0 days 0 hours 0 minutes 4 seconds 412 msec
