                         Program Version 6.0.0  -   RELEASE  -
|  1> # MP2 scan of the potential energy curve for Ar...Ar
|  2>         ! HFLD aug-cc-pvdz aug-cc-pvdz/C verytightscf
|  3>         *xyz 0 1
|  4>         Ar(1)	0.000000000000000	0.000000000000000	0.00000000000000
|  5>         Ar(2)	3.2	0.000000000000000	0.00000000000000
|  6>         **                         ****END OF INPUT****

CARTESIAN COORDINATES (ANGSTROEM)
---------------------------------
  Ar     0.000000    0.000000    0.000000
  Ar     3.200000    0.000000    0.000000

 Total Charge           Charge          ....    0
 Multiplicity           Mult            ....    1
 Number of Electrons    NEL             ....   36
 Basis Dimension        Dim             ....   54

ORBITAL ENERGIES
----------------

  NO   OCC          E(Eh)            E(eV)
   0   2.0000    -118.608923     -3227.5129
   1   2.0000    -118.608922     -3227.5129
   2   2.0000     -12.321333      -335.2805
   3   2.0000     -12.321317      -335.2801
   4   2.0000      -9.569904      -260.4103
   5   2.0000      -9.569902      -260.4103
   6   2.0000      -9.569894      -260.4101
   7   2.0000      -9.569894      -260.4101
   8   2.0000      -9.569893      -260.4100
   9   2.0000      -9.569893      -260.4100
  10   2.0000      -1.281770       -34.8787
  11   2.0000      -1.275273       -34.7020
  12   2.0000      -0.612935       -16.6788
  13   2.0000      -0.595194       -16.1960
  14   2.0000      -0.595194       -16.1960
  15   2.0000      -0.588111       -16.0033
  16   2.0000      -0.588111       -16.0033
  17   2.0000      -0.571393       -15.5484
  18   0.0000       0.126781         3.4499
  19   0.0000       0.139813         3.8045
  20   0.0000       0.139813         3.8045
  21   0.0000       0.148940         4.0529
  22   0.0000       0.176772         4.8102

MULLIKEN ATOMIC CHARGES
-----------------------
   0 Ar:    0.000000
   1 Ar:   -0.000000
Sum of atomic charges:    0.0000000

LOEWDIN ATOMIC CHARGES
----------------------
   0 Ar:    0.000000
   1 Ar:    0.000000

E(0)                                       ...  -1053.598891806
E(0)                                       ...  -1053.598891806
E(CORR)(strong-pairs)                      ...     -0.001666652
E(CORR)(weak-pairs)                        ...     -0.000046275
E(CORR)(corrected)                         ...     -0.001712927
E(TOT)                                     ...  -1053.600604733
FINAL SINGLE POINT ENERGY     -1053.600414763830

DIPOLE MOMENT
-------------

Method             : SCF
Type of density    : Electron Density
Multiplicity       :   1
Irrep              :   0
Energy             : -1053.5988918055909380 Eh
Relativity type    :
Basis              : AO
                                X                 Y                 Z
Electronic contribution:     -0.000000000       0.000000000       0.000000000
Nuclear contribution   :      0.000000000       0.000000000       0.000000000
                        -----------------------------------------
Total Dipole Moment    :     -0.000000000       0.000000000       0.000000000
                        -----------------------------------------
Magnitude (a.u.)       :      0.000000000
Magnitude (Debye)      :      0.000000000

Rotational constants in cm-1:             0.000000             0.082420             0.082420
Rotational constants in MHz :             0.000000          2470.885392          2470.885392

                             ****ORCA TERMINATED NORMALLY****
TOTAL RUN TIME: 0 days 0 hours 0 minutes 4 seconds 261 msec
