                         Program Version 6.0.0  -   RELEASE  -
|  1> # MP2 scan of the potential energy curve for Ar...Ar
|  2>         ! HFLD aug-cc-pvdz aug-cc-pvdz/C verytightscf
|  3>         *xyz 0 1
|  4>         Ar(1)	0.000000000000000	0.000000000000000	0.00000000000000
|  5>         Ar(2)	5.0	0.000000000000000	0.00000000000000
|  6>         **                         ****END OF INPUT****

CARTESIAN COORDINATES (ANGSTROEM)
---------------------------------
  Ar     0.000000    0.000000    0.000000
  Ar     5.000000    0.000000    0.000000

 Total Charge           Charge          ....    0
 Multiplicity           Mult            ....    1
 Number of Electrons    NEL             ....   36
 Basis Dimension        Dim             ....   54

ORBITAL ENERGIES
----------------

  NO   OCC          E(Eh)            E(eV)
   0   2.0000    -118.610568     -3227.5576
   1   2.0000    -118.610568     -3227.5576
   2   2.0000     -12.322774      -335.3197
   3   2.0000     -12.322768      -335.3196
   4   2.0000      -9.571345      -260.4495
   5   2.0000      -9.571345      -260.4495
   6   2.0000      -9.571342      -260.4495
   7   2.0000      -9.571342      -260.4495
   8   2.0000      -9.571342      -260.4495
   9   2.0000      -9.571342      -260.4495
  10   2.0000      -1.278895       -34.8005
  11   2.0000      -1.278844       -34.7991
  12   2.0000      -0.592974       -16.1356
  13   2.0000      -0.592308       -16.1175
  14   2.0000      -0.592308       -16.1175
  15   2.0000      -0.592163       -16.1136
  16   2.0000      -0.592163       -16.1136
  17   2.0000      -0.591514       -16.0959
  18   0.0000       0.127574         3.4715
  19   0.0000       0.137262         3.7351
  20   0.0000       0.137262         3.7351
  21   0.0000       0.146203         3.9784
  22   0.0000       0.165543         4.5047

MULLIKEN ATOMIC CHARGES
-----------------------
   0 Ar:    0.000000
   1 Ar:    0.000000
Sum of atomic charges:    0.0000000

LOEWDIN ATOMIC CHARGES
----------------------
   0 Ar:    0.000000
   1 Ar:   -0.000000

E(0)                                       ...  -1053.601957658
E(0)                                       ...  -1053.601957658
E(CORR)(strong-pairs)                      ...     -0.000012713
E(CORR)(weak-pairs)                        ...     -0.000082243
E(CORR)(corrected)                         ...     -0.000094957
E(TOT)                                     ...  -1053.602052615
FINAL SINGLE POINT ENERGY     -1053.602052597776

DIPOLE MOMENT
-------------

Method             : SCF
Type of density    : Electron Density
Multiplicity       :   1
Irrep              :   0
Energy             : -1053.6019576582780246 Eh
Relativity type    :
Basis              : AO
                                X                 Y                 Z
Electronic contribution:     -0.000000000      -0.000000000       0.000000000
Nuclear contribution   :     -0.000000000       0.000000000       0.000000000
                        -----------------------------------------
Total Dipole Moment    :     -0.000000000      -0.000000000       0.000000000
                        -----------------------------------------
Magnitude (a.u.)       :      0.000000000
Magnitude (Debye)      :      0.000000000

Rotational constants in cm-1:             0.000000             0.033759             0.033759
Rotational constants in MHz :             0.000000          1012.074656          1012.074656

                             ****ORCA TERMINATED NORMALLY****
TOTAL RUN TIME: 0 days 0 hours 0 minutes 3 seconds 342 msec
