                         Program Version 6.0.0  -   RELEASE  -
|  1> # MP2 scan of the potential energy curve for Ar...Ar
|  2>         ! HFLD aug-cc-pvdz aug-cc-pvdz/C verytightscf
|  3>         *xyz 0 1
|  4>         Ar(1)	0.000000000000000	0.000000000000000	0.00000000000000
|  5>         Ar(2)	3.6	0.000000000000000	0.00000000000000
|  6>         **                         ****END OF INPUT****

CARTESIAN COORDINATES (ANGSTROEM)
---------------------------------
  Ar     0.000000    0.000000    0.000000
  Ar     3.600000    0.000000    0.000000

 Total Charge           Charge          ....    0
 Multiplicity           Mult            ....    1
 Number of Electrons    NEL             ....   36
 Basis Dimension        Dim             ....   54

ORBITAL ENERGIES
----------------

  NO   OCC          E(Eh)            E(eV)
   0   2.0000    -118.610054     -3227.5437
   1   2.0000    -118.610054     -3227.5437
   2   2.0000     -12.322272      -335.3061
   3   2.0000     -12.322263      -335.3058
   4   2.0000      -9.570851      -260.4361
   5   2.0000      -9.570851      -260.4361
   6   2.0000      -9.570851      -260.4361
   7   2.0000      -9.570851      -260.4361
   8   2.0000      -9.570846      -260.4360
   9   2.0000      -9.570845      -260.4359
  10   2.0000      -1.279803       -34.8252
  11   2.0000      -1.277492       -34.7623
  12   2.0000      -0.602300       -16.3894
  13   2.0000      -0.593464       -16.1490
  14   2.0000      -0.593464       -16.1490
  15   2.0000      -0.590462       -16.0673
  16   2.0000      -0.590462       -16.0673
  17   2.0000      -0.581997       -15.8369
  18   0.0000       0.131492         3.5781
  19   0.0000       0.137599         3.7442
  20   0.0000       0.137599         3.7442
  21   0.0000       0.147255         4.0070
  22   0.0000       0.174994         4.7618

MULLIKEN ATOMIC CHARGES
-----------------------
   0 Ar:    0.000000
   1 Ar:   -0.000000
Sum of atomic charges:    0.0000000

LOEWDIN ATOMIC CHARGES
----------------------
   0 Ar:   -0.000000
   1 Ar:    0.000000

E(0)                                       ...  -1053.601269065
E(0)                                       ...  -1053.601269065
E(CORR)(strong-pairs)                      ...     -0.000821405
E(CORR)(weak-pairs)                        ...     -0.000023283
E(CORR)(corrected)                         ...     -0.000844687
E(TOT)                                     ...  -1053.602113752
FINAL SINGLE POINT ENERGY     -1053.602062275656

DIPOLE MOMENT
-------------

Method             : SCF
Type of density    : Electron Density
Multiplicity       :   1
Irrep              :   0
Energy             : -1053.6012690646382453 Eh
Relativity type    :
Basis              : AO
                                X                 Y                 Z
Electronic contribution:     -0.000000000      -0.000000000       0.000000000
Nuclear contribution   :      0.000000000       0.000000000       0.000000000
                        -----------------------------------------
Total Dipole Moment    :     -0.000000000      -0.000000000       0.000000000
                        -----------------------------------------
Magnitude (a.u.)       :      0.000000000
Magnitude (Debye)      :      0.000000000

Rotational constants in cm-1:             0.000000             0.065122             0.065122
Rotational constants in MHz :             0.000000          1952.304507          1952.304507

                             ****ORCA TERMINATED NORMALLY****
TOTAL RUN TIME: 0 days 0 hours 0 minutes 4 seconds 157 msec
