                         Program Version 6.0.0  -   RELEASE  -
|  1> # MP2 scan of the potential energy curve for Ar...Ar
|  2>         ! HFLD aug-cc-pvdz aug-cc-pvdz/C verytightscf
|  3>         *xyz 0 1
|  4>         Ar(1)	0.000000000000000	0.000000000000000	0.00000000000000
|  5>         Ar(2)	4.8	0.000000000000000	0.00000000000000
|  6>         **                         ****END OF INPUT****

CARTESIAN COORDINATES (ANGSTROEM)
---------------------------------
  Ar     0.000000    0.000000    0.000000
  Ar     4.800000    0.000000    0.000000

 Total Charge           Charge          ....    0
 Multiplicity           Mult            ....    1
 Number of Electrons    NEL             ....   36
 Basis Dimension        Dim             ....   54

ORBITAL ENERGIES
----------------

  NO   OCC          E(Eh)            E(eV)
   0   2.0000    -118.610564     -3227.5575
   1   2.0000    -118.610564     -3227.5575
   2   2.0000     -12.322765      -335.3195
   3   2.0000     -12.322758      -335.3193
   4   2.0000      -9.571336      -260.4493
   5   2.0000      -9.571336      -260.4493
   6   2.0000      -9.571334      -260.4492
   7   2.0000      -9.571334      -260.4492
   8   2.0000      -9.571334      -260.4492
   9   2.0000      -9.571334      -260.4492
  10   2.0000      -1.278903       -34.8007
  11   2.0000      -1.278814       -34.7983
  12   2.0000      -0.593319       -16.1450
  13   2.0000      -0.592337       -16.1183
  14   2.0000      -0.592337       -16.1183
  15   2.0000      -0.592112       -16.1122
  16   2.0000      -0.592112       -16.1122
  17   2.0000      -0.591153       -16.0861
  18   0.0000       0.130416         3.5488
  19   0.0000       0.136597         3.7170
  20   0.0000       0.136597         3.7170
  21   0.0000       0.144313         3.9269
  22   0.0000       0.167011         4.5446

MULLIKEN ATOMIC CHARGES
-----------------------
   0 Ar:   -0.000000
   1 Ar:   -0.000000
Sum of atomic charges:   -0.0000000

LOEWDIN ATOMIC CHARGES
----------------------
   0 Ar:   -0.000000
   1 Ar:   -0.000000

E(0)                                       ...  -1053.601957939
E(0)                                       ...  -1053.601957939
E(CORR)(strong-pairs)                      ...     -0.000049150
E(CORR)(weak-pairs)                        ...     -0.000075237
E(CORR)(corrected)                         ...     -0.000124387
E(TOT)                                     ...  -1053.602082326
FINAL SINGLE POINT ENERGY     -1053.602082204720

DIPOLE MOMENT
-------------

Method             : SCF
Type of density    : Electron Density
Multiplicity       :   1
Irrep              :   0
Energy             : -1053.6019579388475904 Eh
Relativity type    :
Basis              : AO
                                X                 Y                 Z
Electronic contribution:     -0.000000000      -0.000000000      -0.000000000
Nuclear contribution   :      0.000000000       0.000000000       0.000000000
                        -----------------------------------------
Total Dipole Moment    :     -0.000000000      -0.000000000      -0.000000000
                        -----------------------------------------
Magnitude (a.u.)       :      0.000000000
Magnitude (Debye)      :      0.000000000

Rotational constants in cm-1:             0.000000             0.036631             0.036631
Rotational constants in MHz :             0.000000          1098.171285          1098.171285

                             ****ORCA TERMINATED NORMALLY****
TOTAL RUN TIME: 0 days 0 hours 0 minutes 3 seconds 396 msec
