                         Program Version 6.0.0  -   RELEASE  -
|  1> # MP2 scan of the potential energy curve for Ar...Ar
|  2>                 ! HFLD aug-cc-pvdz aug-cc-pvdz/C verytightscf
|  3>                 *xyz 0 1
|  4>                 Ar(1)	0    0	0.00000000000000
|  5>                 Ar(2)	4.4	0    0.00000000000000
|  6>                 Ar(3)	2.2	3.8105117766515306    0.00000000000000
|  7>                 **                         ****END OF INPUT****

CARTESIAN COORDINATES (ANGSTROEM)
---------------------------------
  Ar     0.000000    0.000000    0.000000
  Ar     4.400000    0.000000    0.000000
  Ar     2.200000    3.810512    0.000000

 Total Charge           Charge          ....    0
 Multiplicity           Mult            ....    1
 Number of Electrons    NEL             ....   54
 Basis Dimension        Dim             ....   81

ORBITAL ENERGIES
----------------

  NO   OCC          E(Eh)            E(eV)
   0   2.0000    -118.610500     -3227.5558
   1   2.0000    -118.610500     -3227.5558
   2   2.0000    -118.610500     -3227.5558
   3   2.0000     -12.322654      -335.3165
   4   2.0000     -12.322654      -335.3165
   5   2.0000     -12.322644      -335.3162
   6   2.0000      -9.571238      -260.4466
   7   2.0000      -9.571238      -260.4466
   8   2.0000      -9.571238      -260.4466
   9   2.0000      -9.571238      -260.4466
  10   2.0000      -9.571237      -260.4466
  11   2.0000      -9.571237      -260.4466
  12   2.0000      -9.571237      -260.4466
  13   2.0000      -9.571237      -260.4466
  14   2.0000      -9.571237      -260.4466
  15   2.0000      -1.279028       -34.8041
  16   2.0000      -1.278619       -34.7930
  17   2.0000      -1.278619       -34.7930
  18   2.0000      -0.595762       -16.2115
  19   2.0000      -0.593640       -16.1538
  20   2.0000      -0.593640       -16.1538
  21   2.0000      -0.592650       -16.1268
  22   2.0000      -0.591846       -16.1050
  23   2.0000      -0.591846       -16.1050
  24   2.0000      -0.590560       -16.0699
  25   2.0000      -0.589617       -16.0443
  26   2.0000      -0.589617       -16.0443
  27   0.0000       0.125326         3.4103
  28   0.0000       0.126063         3.4304
  29   0.0000       0.126602         3.4450
  30   0.0000       0.126602         3.4450
  31   0.0000       0.161383         4.3915

MULLIKEN ATOMIC CHARGES
-----------------------
   0 Ar:    0.000000
   1 Ar:    0.000000
   2 Ar:   -0.000000
Sum of atomic charges:   -0.0000000

LOEWDIN ATOMIC CHARGES
----------------------
   0 Ar:    0.000000
   1 Ar:    0.000000
   2 Ar:   -0.000000

E(0)                                       ...  -1580.402906907
E(0)                                       ...  -1580.402906907
E(CORR)(strong-pairs)                      ...     -0.000466513
E(CORR)(weak-pairs)                        ...     -0.000177463
E(CORR)(corrected)                         ...     -0.000643976
E(TOT)                                     ...  -1580.403550884
FINAL SINGLE POINT ENERGY     -1580.403548853627

DIPOLE MOMENT
-------------

Method             : SCF
Type of density    : Electron Density
Multiplicity       :   1
Irrep              :   0
Energy             : -1580.4029069074458675 Eh
Relativity type    :
Basis              : AO
                                X                 Y                 Z
Electronic contribution:      0.000000000      -0.000000045       0.000000000
Nuclear contribution   :      0.000000000       0.000000000       0.000000000
                        -----------------------------------------
Total Dipole Moment    :      0.000000000      -0.000000045       0.000000000
                        -----------------------------------------
Magnitude (a.u.)       :      0.000000045
Magnitude (Debye)      :      0.000000115

Rotational constants in cm-1:             0.043594             0.043594             0.021797
Rotational constants in MHz :          1306.914587          1306.914587           653.457294

                             ****ORCA TERMINATED NORMALLY****
TOTAL RUN TIME: 0 days 0 hours 0 minutes 7 seconds 763 msec
