                         Program Version 6.0.0  -   RELEASE  -
|  1> # MP2 scan of the potential energy curve for Ar...Ar
|  2>                 ! HFLD aug-cc-pvdz aug-cc-pvdz/C verytightscf
|  3>                 *xyz 0 1
|  4>                 Ar(1)	0    0	0.00000000000000
|  5>                 Ar(2)	4.0	0    0.00000000000000
|  6>                 Ar(3)	0.40000000000000036	3.174901573277509    0.00000000000000
|  7>                 **                         ****END OF INPUT****

CARTESIAN COORDINATES (ANGSTROEM)
---------------------------------
  Ar     0.000000    0.000000    0.000000
  Ar     4.000000    0.000000    0.000000
  Ar     0.400000    3.174902    0.000000

 Total Charge           Charge          ....    0
 Multiplicity           Mult            ....    1
 Number of Electrons    NEL             ....   54
 Basis Dimension        Dim             ....   81

ORBITAL ENERGIES
----------------

  NO   OCC          E(Eh)            E(eV)
   0   2.0000    -118.610522     -3227.5564
   1   2.0000    -118.608908     -3227.5125
   2   2.0000    -118.608790     -3227.5093
   3   2.0000     -12.322686      -335.3173
   4   2.0000     -12.321297      -335.2795
   5   2.0000     -12.321139      -335.2752
   6   2.0000      -9.571273      -260.4476
   7   2.0000      -9.571271      -260.4475
   8   2.0000      -9.571269      -260.4475
   9   2.0000      -9.569880      -260.4097
  10   2.0000      -9.569871      -260.4094
  11   2.0000      -9.569870      -260.4094
  12   2.0000      -9.569735      -260.4057
  13   2.0000      -9.569726      -260.4055
  14   2.0000      -9.569723      -260.4054
  15   2.0000      -1.281718       -34.8773
  16   2.0000      -1.278819       -34.7984
  17   2.0000      -1.275166       -34.6990
  18   2.0000      -0.612885       -16.6775
  19   2.0000      -0.598108       -16.2754
  20   2.0000      -0.595191       -16.1960
  21   2.0000      -0.592421       -16.1206
  22   2.0000      -0.592129       -16.1127
  23   2.0000      -0.591036       -16.0829
  24   2.0000      -0.587982       -15.9998
  25   2.0000      -0.586024       -15.9465
  26   2.0000      -0.571295       -15.5457
  27   0.0000       0.119688         3.2569
  28   0.0000       0.129997         3.5374
  29   0.0000       0.130187         3.5426
  30   0.0000       0.130841         3.5604
  31   0.0000       0.155382         4.2282

MULLIKEN ATOMIC CHARGES
-----------------------
   0 Ar:    0.000625
   1 Ar:   -0.000250
   2 Ar:   -0.000375
Sum of atomic charges:    0.0000000

LOEWDIN ATOMIC CHARGES
----------------------
   0 Ar:   -0.000962
   1 Ar:    0.000713
   2 Ar:    0.000250

E(0)                                       ...  -1580.399758736
E(0)                                       ...  -1580.399758736
E(CORR)(strong-pairs)                      ...     -0.002076468
E(CORR)(weak-pairs)                        ...     -0.000150922
E(CORR)(corrected)                         ...     -0.002227390
E(TOT)                                     ...  -1580.401986126
FINAL SINGLE POINT ENERGY     -1580.401779988615

DIPOLE MOMENT
-------------

Method             : SCF
Type of density    : Electron Density
Multiplicity       :   1
Irrep              :   0
Energy             : -1580.3997587363478488 Eh
Relativity type    :
Basis              : AO
                                X                 Y                 Z
Electronic contribution:      0.000169684      -0.000627694       0.000000000
Nuclear contribution   :     -0.000000000      -0.000000000       0.000000000
                        -----------------------------------------
Total Dipole Moment    :      0.000169684      -0.000627694       0.000000000
                        -----------------------------------------
Magnitude (a.u.)       :      0.000650225
Magnitude (Debye)      :      0.001652741

Rotational constants in cm-1:             0.093523             0.035418             0.025689
Rotational constants in MHz :          2803.755620          1061.807304           770.146096

                             ****ORCA TERMINATED NORMALLY****
TOTAL RUN TIME: 0 days 0 hours 0 minutes 10 seconds 297 msec
