                         Program Version 6.0.0  -   RELEASE  -
|  1> # MP2 scan of the potential energy curve for Ar...Ar
|  2>                 ! HFLD aug-cc-pvdz aug-cc-pvdz/C verytightscf
|  3>                 *xyz 0 1
|  4>                 Ar(1)	0    0	0.00000000000000
|  5>                 Ar(2)	2.8	0    0.00000000000000
|  6>                 Ar(3)	3.4571428571428577	2.721794126179664    0.00000000000000
|  7>                 **                         ****END OF INPUT****

CARTESIAN COORDINATES (ANGSTROEM)
---------------------------------
  Ar     0.000000    0.000000    0.000000
  Ar     2.800000    0.000000    0.000000
  Ar     3.457143    2.721794    0.000000

 Total Charge           Charge          ....    0
 Multiplicity           Mult            ....    1
 Number of Electrons    NEL             ....   54
 Basis Dimension        Dim             ....   81

ORBITAL ENERGIES
----------------

  NO   OCC          E(Eh)            E(eV)
   0   2.0000    -118.605783     -3227.4274
   1   2.0000    -118.605783     -3227.4274
   2   2.0000    -118.600883     -3227.2941
   3   2.0000     -12.318868      -335.2134
   4   2.0000     -12.318857      -335.2131
   5   2.0000     -12.314873      -335.1047
   6   2.0000      -9.567449      -260.3435
   7   2.0000      -9.567448      -260.3435
   8   2.0000      -9.567352      -260.3409
   9   2.0000      -9.567352      -260.3409
  10   2.0000      -9.567351      -260.3408
  11   2.0000      -9.567351      -260.3408
  12   2.0000      -9.563393      -260.2331
  13   2.0000      -9.563347      -260.2319
  14   2.0000      -9.563274      -260.2299
  15   2.0000      -1.291634       -35.1471
  16   2.0000      -1.278913       -34.8010
  17   2.0000      -1.265962       -34.4486
  18   2.0000      -0.638564       -17.3762
  19   2.0000      -0.628916       -17.1137
  20   2.0000      -0.602637       -16.3986
  21   2.0000      -0.592187       -16.1142
  22   2.0000      -0.591141       -16.0858
  23   2.0000      -0.590141       -16.0585
  24   2.0000      -0.578877       -15.7520
  25   2.0000      -0.553943       -15.0735
  26   2.0000      -0.544394       -14.8137
  27   0.0000       0.120464         3.2780
  28   0.0000       0.123440         3.3590
  29   0.0000       0.136640         3.7182
  30   0.0000       0.137406         3.7390
  31   0.0000       0.154699         4.2096

MULLIKEN ATOMIC CHARGES
-----------------------
   0 Ar:   -0.001485
   1 Ar:    0.002970
   2 Ar:   -0.001485
Sum of atomic charges:   -0.0000000

LOEWDIN ATOMIC CHARGES
----------------------
   0 Ar:    0.003272
   1 Ar:   -0.006545
   2 Ar:    0.003272

E(0)                                       ...  -1580.376922807
E(0)                                       ...  -1580.376922807
E(CORR)(strong-pairs)                      ...     -0.006423954
E(CORR)(weak-pairs)                        ...     -0.000181242
E(CORR)(corrected)                         ...     -0.006605196
E(TOT)                                     ...  -1580.383528003
FINAL SINGLE POINT ENERGY     -1580.382255110731

DIPOLE MOMENT
-------------

Method             : SCF
Type of density    : Electron Density
Multiplicity       :   1
Irrep              :   0
Energy             : -1580.3769228071168982 Eh
Relativity type    :
Basis              : AO
                                X                 Y                 Z
Electronic contribution:      0.002144706      -0.002724145      -0.000000000
Nuclear contribution   :      0.000000000       0.000000000       0.000000000
                        -----------------------------------------
Total Dipole Moment    :      0.002144706      -0.002724145      -0.000000000
                        -----------------------------------------
Magnitude (a.u.)       :      0.003467093
Magnitude (Debye)      :      0.008812649

Rotational constants in cm-1:             0.210995             0.043594             0.036129
Rotational constants in MHz :          6325.466603          1306.914587          1083.127843

                             ****ORCA TERMINATED NORMALLY****
TOTAL RUN TIME: 0 days 0 hours 0 minutes 11 seconds 459 msec
