                         Program Version 6.0.0  -   RELEASE  -
|  1> # MP2 scan of the potential energy curve for Ar...Ar
|  2>                 ! HFLD aug-cc-pvdz aug-cc-pvdz/C verytightscf
|  3>                 *xyz 0 1
|  4>                 Ar(1)	0    0	0.00000000000000
|  5>                 Ar(2)	3.2	0    0.00000000000000
|  6>                 Ar(3)	1.9750000000000005	2.5178115497391778    0.00000000000000
|  7>                 **                         ****END OF INPUT****

CARTESIAN COORDINATES (ANGSTROEM)
---------------------------------
  Ar     0.000000    0.000000    0.000000
  Ar     3.200000    0.000000    0.000000
  Ar     1.975000    2.517812    0.000000

 Total Charge           Charge          ....    0
 Multiplicity           Mult            ....    1
 Number of Electrons    NEL             ....   54
 Basis Dimension        Dim             ....   81

ORBITAL ENERGIES
----------------

  NO   OCC          E(Eh)            E(eV)
   0   2.0000    -118.608150     -3227.4919
   1   2.0000    -118.604509     -3227.3928
   2   2.0000    -118.604508     -3227.3927
   3   2.0000     -12.320726      -335.2640
   4   2.0000     -12.317788      -335.1840
   5   2.0000     -12.317764      -335.1834
   6   2.0000      -9.569317      -260.3944
   7   2.0000      -9.569293      -260.3937
   8   2.0000      -9.569293      -260.3937
   9   2.0000      -9.566364      -260.3140
  10   2.0000      -9.566363      -260.3140
  11   2.0000      -9.566268      -260.3114
  12   2.0000      -9.566266      -260.3113
  13   2.0000      -9.566262      -260.3112
  14   2.0000      -9.566259      -260.3112
  15   2.0000      -1.289857       -35.0988
  16   2.0000      -1.276945       -34.7474
  17   2.0000      -1.269634       -34.5485
  18   2.0000      -0.637600       -17.3500
  19   2.0000      -0.615954       -16.7610
  20   2.0000      -0.602234       -16.3876
  21   2.0000      -0.601793       -16.3756
  22   2.0000      -0.589291       -16.0354
  23   2.0000      -0.582503       -15.8507
  24   2.0000      -0.573337       -15.6013
  25   2.0000      -0.571589       -15.5537
  26   2.0000      -0.549923       -14.9642
  27   0.0000       0.114555         3.1172
  28   0.0000       0.117414         3.1950
  29   0.0000       0.135526         3.6878
  30   0.0000       0.137554         3.7430
  31   0.0000       0.172484         4.6935

MULLIKEN ATOMIC CHARGES
-----------------------
   0 Ar:   -0.000058
   1 Ar:    0.000029
   2 Ar:    0.000029
Sum of atomic charges:   -0.0000000

LOEWDIN ATOMIC CHARGES
----------------------
   0 Ar:    0.003026
   1 Ar:   -0.001513
   2 Ar:   -0.001513

E(0)                                       ...  -1580.384181988
E(0)                                       ...  -1580.384181988
E(CORR)(strong-pairs)                      ...     -0.006099304
E(CORR)(weak-pairs)                        ...     -0.000161056
E(CORR)(corrected)                         ...     -0.006260360
E(TOT)                                     ...  -1580.390442348
FINAL SINGLE POINT ENERGY     -1580.389510238100

DIPOLE MOMENT
-------------

Method             : SCF
Type of density    : Electron Density
Multiplicity       :   1
Irrep              :   0
Energy             : -1580.3841819877941361 Eh
Relativity type    :
Basis              : AO
                                X                 Y                 Z
Electronic contribution:     -0.001373240      -0.000668141      -0.000000000
Nuclear contribution   :     -0.000000000      -0.000000000       0.000000000
                        -----------------------------------------
Total Dipole Moment    :     -0.001373240      -0.000668141      -0.000000000
                        -----------------------------------------
Magnitude (a.u.)       :      0.001527155
Magnitude (Debye)      :      0.003881718

Rotational constants in cm-1:             0.107650             0.076447             0.044702
Rotational constants in MHz :          3227.278879          2291.835726          1340.141229

                             ****ORCA TERMINATED NORMALLY****
TOTAL RUN TIME: 0 days 0 hours 0 minutes 11 seconds 858 msec
