                         Program Version 6.0.0  -   RELEASE  -
|  1> # MP2 scan of the potential energy curve for Ar...Ar
|  2>                 ! HFLD aug-cc-pvdz aug-cc-pvdz/C verytightscf
|  3>                 *xyz 0 1
|  4>                 Ar(1)	0    0	0.00000000000000
|  5>                 Ar(2)	4.4	0    0.00000000000000
|  6>                 Ar(3)	1.7818181818181824	4.023073945000533    0.00000000000000
|  7>                 **                         ****END OF INPUT****

CARTESIAN COORDINATES (ANGSTROEM)
---------------------------------
  Ar     0.000000    0.000000    0.000000
  Ar     4.400000    0.000000    0.000000
  Ar     1.781818    4.023074    0.000000

 Total Charge           Charge          ....    0
 Multiplicity           Mult            ....    1
 Number of Electrons    NEL             ....   54
 Basis Dimension        Dim             ....   81

ORBITAL ENERGIES
----------------

  NO   OCC          E(Eh)            E(eV)
   0   2.0000    -118.610524     -3227.5564
   1   2.0000    -118.610524     -3227.5564
   2   2.0000    -118.610499     -3227.5558
   3   2.0000     -12.322693      -335.3175
   4   2.0000     -12.322688      -335.3174
   5   2.0000     -12.322646      -335.3163
   6   2.0000      -9.571275      -260.4476
   7   2.0000      -9.571274      -260.4476
   8   2.0000      -9.571273      -260.4476
   9   2.0000      -9.571273      -260.4476
  10   2.0000      -9.571272      -260.4476
  11   2.0000      -9.571272      -260.4476
  12   2.0000      -9.571235      -260.4465
  13   2.0000      -9.571235      -260.4465
  14   2.0000      -9.571234      -260.4465
  15   2.0000      -1.278990       -34.8031
  16   2.0000      -1.278745       -34.7964
  17   2.0000      -1.278595       -34.7923
  18   2.0000      -0.595218       -16.1967
  19   2.0000      -0.593873       -16.1601
  20   2.0000      -0.592865       -16.1327
  21   2.0000      -0.592573       -16.1247
  22   2.0000      -0.592039       -16.1102
  23   2.0000      -0.591800       -16.1037
  24   2.0000      -0.591264       -16.0891
  25   2.0000      -0.590138       -16.0585
  26   2.0000      -0.589588       -16.0435
  27   0.0000       0.122606         3.3363
  28   0.0000       0.126141         3.4325
  29   0.0000       0.126621         3.4455
  30   0.0000       0.128730         3.5029
  31   0.0000       0.157368         4.2822

MULLIKEN ATOMIC CHARGES
-----------------------
   0 Ar:    0.000047
   1 Ar:   -0.000023
   2 Ar:   -0.000023
Sum of atomic charges:   -0.0000000

LOEWDIN ATOMIC CHARGES
----------------------
   0 Ar:   -0.000080
   1 Ar:    0.000040
   2 Ar:    0.000040

E(0)                                       ...  -1580.402921936
E(0)                                       ...  -1580.402921936
E(CORR)(strong-pairs)                      ...     -0.000387652
E(CORR)(weak-pairs)                        ...     -0.000172940
E(CORR)(corrected)                         ...     -0.000560592
E(TOT)                                     ...  -1580.403482528
FINAL SINGLE POINT ENERGY     -1580.403480940149

DIPOLE MOMENT
-------------

Method             : SCF
Type of density    : Electron Density
Multiplicity       :   1
Irrep              :   0
Energy             : -1580.4029219356548310 Eh
Relativity type    :
Basis              : AO
                                X                 Y                 Z
Electronic contribution:     -0.000034224      -0.000022290       0.000000000
Nuclear contribution   :      0.000000000       0.000000000       0.000000000
                        -----------------------------------------
Total Dipole Moment    :     -0.000034224      -0.000022290       0.000000000
                        -----------------------------------------
Magnitude (a.u.)       :      0.000040842
Magnitude (Debye)      :      0.000103813

Rotational constants in cm-1:             0.046543             0.036631             0.020498
Rotational constants in MHz :          1395.323515          1098.171285           614.520719

                             ****ORCA TERMINATED NORMALLY****
TOTAL RUN TIME: 0 days 0 hours 0 minutes 11 seconds 806 msec
