                         Program Version 6.0.0  -   RELEASE  -
|  1> # MP2 scan of the potential energy curve for Ar...Ar
|  2>                 ! HFLD aug-cc-pvdz aug-cc-pvdz/C verytightscf
|  3>                 *xyz 0 1
|  4>                 Ar(1)	0    0	0.00000000000000
|  5>                 Ar(2)	2.8	0    0.00000000000000
|  6>                 Ar(3)	1.4	3.3166247903554003    0.00000000000000
|  7>                 **                         ****END OF INPUT****

CARTESIAN COORDINATES (ANGSTROEM)
---------------------------------
  Ar     0.000000    0.000000    0.000000
  Ar     2.800000    0.000000    0.000000
  Ar     1.400000    3.316625    0.000000

 Total Charge           Charge          ....    0
 Multiplicity           Mult            ....    1
 Number of Electrons    NEL             ....   54
 Basis Dimension        Dim             ....   81

ORBITAL ENERGIES
----------------

  NO   OCC          E(Eh)            E(eV)
   0   2.0000    -118.610114     -3227.5453
   1   2.0000    -118.605321     -3227.4149
   2   2.0000    -118.605320     -3227.4148
   3   2.0000     -12.322335      -335.3078
   4   2.0000     -12.318427      -335.2014
   5   2.0000     -12.318404      -335.2008
   6   2.0000      -9.570930      -260.4382
   7   2.0000      -9.570927      -260.4382
   8   2.0000      -9.570926      -260.4381
   9   2.0000      -9.567013      -260.3317
  10   2.0000      -9.567012      -260.3316
  11   2.0000      -9.566917      -260.3290
  12   2.0000      -9.566914      -260.3290
  13   2.0000      -9.566912      -260.3289
  14   2.0000      -9.566910      -260.3288
  15   2.0000      -1.288070       -35.0502
  16   2.0000      -1.278666       -34.7943
  17   2.0000      -1.269569       -34.5467
  18   2.0000      -0.634044       -17.2532
  19   2.0000      -0.607948       -16.5431
  20   2.0000      -0.599958       -16.3257
  21   2.0000      -0.595207       -16.1964
  22   2.0000      -0.591637       -16.0993
  23   2.0000      -0.583384       -15.8747
  24   2.0000      -0.582606       -15.8535
  25   2.0000      -0.579947       -15.7812
  26   2.0000      -0.550037       -14.9673
  27   0.0000       0.114870         3.1258
  28   0.0000       0.121959         3.3187
  29   0.0000       0.134541         3.6611
  30   0.0000       0.135538         3.6882
  31   0.0000       0.168389         4.5821

MULLIKEN ATOMIC CHARGES
-----------------------
   0 Ar:    0.000201
   1 Ar:    0.000201
   2 Ar:   -0.000401
Sum of atomic charges:   -0.0000000

LOEWDIN ATOMIC CHARGES
----------------------
   0 Ar:   -0.001427
   1 Ar:   -0.001427
   2 Ar:    0.002853

E(0)                                       ...  -1580.388654396
E(0)                                       ...  -1580.388654396
E(CORR)(strong-pairs)                      ...     -0.004613451
E(CORR)(weak-pairs)                        ...     -0.000116636
E(CORR)(corrected)                         ...     -0.004730087
E(TOT)                                     ...  -1580.393384483
FINAL SINGLE POINT ENERGY     -1580.392659927885

DIPOLE MOMENT
-------------

Method             : SCF
Type of density    : Electron Density
Multiplicity       :   1
Irrep              :   0
Energy             : -1580.3886543957121376 Eh
Relativity type    :
Basis              : AO
                                X                 Y                 Z
Electronic contribution:     -0.000000000       0.001811048       0.000000000
Nuclear contribution   :      0.000000000      -0.000000000       0.000000000
                        -----------------------------------------
Total Dipole Moment    :     -0.000000000       0.001811048       0.000000000
                        -----------------------------------------
Magnitude (a.u.)       :      0.001811048
Magnitude (Debye)      :      0.004603318

Rotational constants in cm-1:             0.107650             0.057544             0.037499
Rotational constants in MHz :          3227.278879          1725.127255          1124.194301

                             ****ORCA TERMINATED NORMALLY****
TOTAL RUN TIME: 0 days 0 hours 0 minutes 17 seconds 533 msec
