                         Program Version 6.0.0  -   RELEASE  -
|  1> # MP2 scan of the potential energy curve for Ar...Ar
|  2>                 ! HFLD aug-cc-pvdz aug-cc-pvdz/C verytightscf
|  3>                 *xyz 0 1
|  4>                 Ar(1)	0    0	0.00000000000000
|  5>                 Ar(2)	2.8	0    0.00000000000000
|  6>                 Ar(3)	0.14285714285714282	3.9974481656094922    0.00000000000000
|  7>                 **                         ****END OF INPUT****

CARTESIAN COORDINATES (ANGSTROEM)
---------------------------------
  Ar     0.000000    0.000000    0.000000
  Ar     2.800000    0.000000    0.000000
  Ar     0.142857    3.997448    0.000000

 Total Charge           Charge          ....    0
 Multiplicity           Mult            ....    1
 Number of Electrons    NEL             ....   54
 Basis Dimension        Dim             ....   81

ORBITAL ENERGIES
----------------

  NO   OCC          E(Eh)            E(eV)
   0   2.0000    -118.610642     -3227.5597
   1   2.0000    -118.605711     -3227.4255
   2   2.0000    -118.605594     -3227.4223
   3   2.0000     -12.322808      -335.3207
   4   2.0000     -12.318800      -335.2116
   5   2.0000     -12.318645      -335.2074
   6   2.0000      -9.571394      -260.4509
   7   2.0000      -9.571393      -260.4508
   8   2.0000      -9.571390      -260.4508
   9   2.0000      -9.567385      -260.3418
  10   2.0000      -9.567287      -260.3391
  11   2.0000      -9.567286      -260.3391
  12   2.0000      -9.567244      -260.3379
  13   2.0000      -9.567147      -260.3353
  14   2.0000      -9.567144      -260.3352
  15   2.0000      -1.287856       -35.0443
  16   2.0000      -1.278954       -34.8021
  17   2.0000      -1.269656       -34.5491
  18   2.0000      -0.633509       -17.2387
  19   2.0000      -0.601336       -16.3632
  20   2.0000      -0.599544       -16.3144
  21   2.0000      -0.592398       -16.1200
  22   2.0000      -0.592285       -16.1169
  23   2.0000      -0.591458       -16.0944
  24   2.0000      -0.582722       -15.8567
  25   2.0000      -0.581807       -15.8318
  26   2.0000      -0.550157       -14.9705
  27   0.0000       0.117054         3.1852
  28   0.0000       0.130797         3.5592
  29   0.0000       0.132024         3.5926
  30   0.0000       0.132261         3.5990
  31   0.0000       0.153924         4.1885

MULLIKEN ATOMIC CHARGES
-----------------------
   0 Ar:    0.000914
   1 Ar:   -0.000642
   2 Ar:   -0.000272
Sum of atomic charges:    0.0000000

LOEWDIN ATOMIC CHARGES
----------------------
   0 Ar:   -0.001333
   1 Ar:    0.000276
   2 Ar:    0.001057

E(0)                                       ...  -1580.389811572
E(0)                                       ...  -1580.389811572
E(CORR)(strong-pairs)                      ...     -0.003786197
E(CORR)(weak-pairs)                        ...     -0.000155619
E(CORR)(corrected)                         ...     -0.003941815
E(TOT)                                     ...  -1580.393753387
FINAL SINGLE POINT ENERGY     -1580.393026267206

DIPOLE MOMENT
-------------

Method             : SCF
Type of density    : Electron Density
Multiplicity       :   1
Irrep              :   0
Energy             : -1580.3898115716465327 Eh
Relativity type    :
Basis              : AO
                                X                 Y                 Z
Electronic contribution:     -0.001142765       0.000556430      -0.000000000
Nuclear contribution   :     -0.000000000       0.000000000       0.000000000
                        -----------------------------------------
Total Dipole Moment    :     -0.001142765       0.000556430      -0.000000000
                        -----------------------------------------
Magnitude (a.u.)       :      0.001271034
Magnitude (Debye)      :      0.003230711

Rotational constants in cm-1:             0.123335             0.034575             0.027004
Rotational constants in MHz :          3697.478837          1036.522989           809.573371

                             ****ORCA TERMINATED NORMALLY****
TOTAL RUN TIME: 0 days 0 hours 0 minutes 13 seconds 401 msec
