                         Program Version 6.0.0  -   RELEASE  -
|  1> # MP2 scan of the potential energy curve for Ar...Ar
|  2>                 ! HFLD aug-cc-pvdz aug-cc-pvdz/C verytightscf
|  3>                 *xyz 0 1
|  4>                 Ar(1)	0    0	0.00000000000000
|  5>                 Ar(2)	4.4	0    0.00000000000000
|  6>                 Ar(3)	0.4727272727272731	2.759805957965131    0.00000000000000
|  7>                 **                         ****END OF INPUT****

CARTESIAN COORDINATES (ANGSTROEM)
---------------------------------
  Ar     0.000000    0.000000    0.000000
  Ar     4.400000    0.000000    0.000000
  Ar     0.472727    2.759806    0.000000

 Total Charge           Charge          ....    0
 Multiplicity           Mult            ....    1
 Number of Electrons    NEL             ....   54
 Basis Dimension        Dim             ....   81

ORBITAL ENERGIES
----------------

  NO   OCC          E(Eh)            E(eV)
   0   2.0000    -118.610761     -3227.5629
   1   2.0000    -118.605710     -3227.4255
   2   2.0000    -118.605691     -3227.4249
   3   2.0000     -12.322935      -335.3241
   4   2.0000     -12.318799      -335.2116
   5   2.0000     -12.318753      -335.2103
   6   2.0000      -9.571517      -260.4542
   7   2.0000      -9.571514      -260.4541
   8   2.0000      -9.571514      -260.4541
   9   2.0000      -9.567382      -260.3417
  10   2.0000      -9.567348      -260.3408
  11   2.0000      -9.567285      -260.3391
  12   2.0000      -9.567284      -260.3390
  13   2.0000      -9.567251      -260.3381
  14   2.0000      -9.567251      -260.3381
  15   2.0000      -1.287876       -35.0449
  16   2.0000      -1.279034       -34.8043
  17   2.0000      -1.269693       -34.5501
  18   2.0000      -0.633539       -17.2395
  19   2.0000      -0.600171       -16.3315
  20   2.0000      -0.599549       -16.3146
  21   2.0000      -0.592441       -16.1211
  22   2.0000      -0.592384       -16.1196
  23   2.0000      -0.591920       -16.1069
  24   2.0000      -0.582770       -15.8580
  25   2.0000      -0.582637       -15.8544
  26   2.0000      -0.550196       -14.9716
  27   0.0000       0.116141         3.1604
  28   0.0000       0.128716         3.5025
  29   0.0000       0.131463         3.5773
  30   0.0000       0.133703         3.6383
  31   0.0000       0.153830         4.1859

MULLIKEN ATOMIC CHARGES
-----------------------
   0 Ar:    0.000351
   1 Ar:   -0.000158
   2 Ar:   -0.000193
Sum of atomic charges:    0.0000000

LOEWDIN ATOMIC CHARGES
----------------------
   0 Ar:   -0.000645
   1 Ar:    0.000738
   2 Ar:   -0.000093

E(0)                                       ...  -1580.389924673
E(0)                                       ...  -1580.389924673
E(CORR)(strong-pairs)                      ...     -0.003387505
E(CORR)(weak-pairs)                        ...     -0.000224688
E(CORR)(corrected)                         ...     -0.003612193
E(TOT)                                     ...  -1580.393536866
FINAL SINGLE POINT ENERGY     -1580.392883578790

DIPOLE MOMENT
-------------

Method             : SCF
Type of density    : Electron Density
Multiplicity       :   1
Irrep              :   0
Energy             : -1580.3899246725472949 Eh
Relativity type    :
Basis              : AO
                                X                 Y                 Z
Electronic contribution:      0.000724112      -0.000671350      -0.000000000
Nuclear contribution   :     -0.000000000      -0.000000000       0.000000000
                        -----------------------------------------
Total Dipole Moment    :      0.000724112      -0.000671350      -0.000000000
                        -----------------------------------------
Magnitude (a.u.)       :      0.000987446
Magnitude (Debye)      :      0.002509888

Rotational constants in cm-1:             0.111195             0.032582             0.025198
Rotational constants in MHz :          3333.538467           976.783828           755.429929

                             ****ORCA TERMINATED NORMALLY****
TOTAL RUN TIME: 0 days 0 hours 0 minutes 13 seconds 35 msec
