                         Program Version 6.0.0  -   RELEASE  -
|  1> # MP2 scan of the potential energy curve for Ar...Ar
|  2>                 ! HFLD aug-cc-pvdz aug-cc-pvdz/C verytightscf
|  3>                 *xyz 0 1
|  4>                 Ar(1)	0    0	0.00000000000000
|  5>                 Ar(2)	4.0	0    0.00000000000000
|  6>                 Ar(3)	2.38	3.214902797908515    0.00000000000000
|  7>                 **                         ****END OF INPUT****

CARTESIAN COORDINATES (ANGSTROEM)
---------------------------------
  Ar     0.000000    0.000000    0.000000
  Ar     4.000000    0.000000    0.000000
  Ar     2.380000    3.214903    0.000000

 Total Charge           Charge          ....    0
 Multiplicity           Mult            ....    1
 Number of Electrons    NEL             ....   54
 Basis Dimension        Dim             ....   81

ORBITAL ENERGIES
----------------

  NO   OCC          E(Eh)            E(eV)
   0   2.0000    -118.610362     -3227.5520
   1   2.0000    -118.609942     -3227.5406
   2   2.0000    -118.609941     -3227.5406
   3   2.0000     -12.322497      -335.3122
   4   2.0000     -12.322111      -335.3017
   5   2.0000     -12.322105      -335.3015
   6   2.0000      -9.571093      -260.4427
   7   2.0000      -9.571092      -260.4426
   8   2.0000      -9.571088      -260.4426
   9   2.0000      -9.570708      -260.4322
  10   2.0000      -9.570708      -260.4322
  11   2.0000      -9.570706      -260.4322
  12   2.0000      -9.570705      -260.4321
  13   2.0000      -9.570702      -260.4320
  14   2.0000      -9.570701      -260.4320
  15   2.0000      -1.279951       -34.8292
  16   2.0000      -1.278435       -34.7880
  17   2.0000      -1.277375       -34.7592
  18   2.0000      -0.603286       -16.4162
  19   2.0000      -0.597345       -16.2546
  20   2.0000      -0.594524       -16.1778
  21   2.0000      -0.593794       -16.1580
  22   2.0000      -0.591578       -16.0976
  23   2.0000      -0.590334       -16.0638
  24   2.0000      -0.588001       -16.0003
  25   2.0000      -0.587038       -15.9741
  26   2.0000      -0.581834       -15.8325
  27   0.0000       0.120780         3.2866
  28   0.0000       0.124236         3.3806
  29   0.0000       0.128923         3.5082
  30   0.0000       0.133254         3.6260
  31   0.0000       0.165703         4.5090

MULLIKEN ATOMIC CHARGES
-----------------------
   0 Ar:   -0.000234
   1 Ar:    0.000117
   2 Ar:    0.000117
Sum of atomic charges:   -0.0000000

LOEWDIN ATOMIC CHARGES
----------------------
   0 Ar:    0.000441
   1 Ar:   -0.000220
   2 Ar:   -0.000220

E(0)                                       ...  -1580.402013623
E(0)                                       ...  -1580.402013623
E(CORR)(strong-pairs)                      ...     -0.001550115
E(CORR)(weak-pairs)                        ...     -0.000043606
E(CORR)(corrected)                         ...     -0.001593721
E(TOT)                                     ...  -1580.403607344
FINAL SINGLE POINT ENERGY     -1580.403547558255

DIPOLE MOMENT
-------------

Method             : SCF
Type of density    : Electron Density
Multiplicity       :   1
Irrep              :   0
Energy             : -1580.4020136233568792 Eh
Relativity type    :
Basis              : AO
                                X                 Y                 Z
Electronic contribution:     -0.000136335      -0.000068724      -0.000000000
Nuclear contribution   :      0.000000000       0.000000000       0.000000000
                        -----------------------------------------
Total Dipole Moment    :     -0.000136335      -0.000068724      -0.000000000
                        -----------------------------------------
Magnitude (a.u.)       :      0.000152676
Magnitude (Debye)      :      0.000388072

Rotational constants in cm-1:             0.065122             0.049607             0.028158
Rotational constants in MHz :          1952.304507          1487.178668           844.145899

                             ****ORCA TERMINATED NORMALLY****
TOTAL RUN TIME: 0 days 0 hours 0 minutes 12 seconds 630 msec
