                         Program Version 6.0.0  -   RELEASE  -
|  1> # MP2 scan of the potential energy curve for Ar...Ar
|  2>                 ! HFLD aug-cc-pvdz aug-cc-pvdz/C verytightscf
|  3>                 *xyz 0 1
|  4>                 Ar(1)	0    0	0.00000000000000
|  5>                 Ar(2)	2.8	0    0.00000000000000
|  6>                 Ar(3)	0.2571428571428566	3.5908045826834423    0.00000000000000
|  7>                 **                         ****END OF INPUT****

CARTESIAN COORDINATES (ANGSTROEM)
---------------------------------
  Ar     0.000000    0.000000    0.000000
  Ar     2.800000    0.000000    0.000000
  Ar     0.257143    3.590805    0.000000

 Total Charge           Charge          ....    0
 Multiplicity           Mult            ....    1
 Number of Electrons    NEL             ....   54
 Basis Dimension        Dim             ....   81

ORBITAL ENERGIES
----------------

  NO   OCC          E(Eh)            E(eV)
   0   2.0000    -118.610318     -3227.5508
   1   2.0000    -118.605727     -3227.4259
   2   2.0000    -118.605217     -3227.4120
   3   2.0000     -12.322514      -335.3126
   4   2.0000     -12.318803      -335.2117
   5   2.0000     -12.318307      -335.1982
   6   2.0000      -9.571103      -260.4430
   7   2.0000      -9.571102      -260.4429
   8   2.0000      -9.571098      -260.4428
   9   2.0000      -9.567391      -260.3419
  10   2.0000      -9.567293      -260.3393
  11   2.0000      -9.567293      -260.3393
  12   2.0000      -9.566907      -260.3288
  13   2.0000      -9.566811      -260.3262
  14   2.0000      -9.566805      -260.3260
  15   2.0000      -1.287883       -35.0451
  16   2.0000      -1.278861       -34.7996
  17   2.0000      -1.269546       -34.5461
  18   2.0000      -0.633494       -17.2382
  19   2.0000      -0.605296       -16.4710
  20   2.0000      -0.599636       -16.3169
  21   2.0000      -0.592676       -16.1275
  22   2.0000      -0.592080       -16.1113
  23   2.0000      -0.590016       -16.0552
  24   2.0000      -0.582574       -15.8526
  25   2.0000      -0.578867       -15.7518
  26   2.0000      -0.550068       -14.9681
  27   0.0000       0.117031         3.1846
  28   0.0000       0.126577         3.4443
  29   0.0000       0.133080         3.6213
  30   0.0000       0.134674         3.6647
  31   0.0000       0.158686         4.3181

MULLIKEN ATOMIC CHARGES
-----------------------
   0 Ar:    0.001805
   1 Ar:   -0.001207
   2 Ar:   -0.000598
Sum of atomic charges:    0.0000000

LOEWDIN ATOMIC CHARGES
----------------------
   0 Ar:   -0.002644
   1 Ar:    0.000662
   2 Ar:    0.001982

E(0)                                       ...  -1580.389248787
E(0)                                       ...  -1580.389248787
E(CORR)(strong-pairs)                      ...     -0.004021412
E(CORR)(weak-pairs)                        ...     -0.000163381
E(CORR)(corrected)                         ...     -0.004184794
E(TOT)                                     ...  -1580.393433580
FINAL SINGLE POINT ENERGY     -1580.392763141865

DIPOLE MOMENT
-------------

Method             : SCF
Type of density    : Electron Density
Multiplicity       :   1
Irrep              :   0
Energy             : -1580.3892487865289240 Eh
Relativity type    :
Basis              : AO
                                X                 Y                 Z
Electronic contribution:     -0.001451681       0.000560093      -0.000000000
Nuclear contribution   :      0.000000000      -0.000000000       0.000000000
                        -----------------------------------------
Total Dipole Moment    :     -0.001451681       0.000560093      -0.000000000
                        -----------------------------------------
Magnitude (a.u.)       :      0.001555983
Magnitude (Debye)      :      0.003954993

Rotational constants in cm-1:             0.125556             0.042091             0.031523
Rotational constants in MHz :          3764.083085          1261.849543           945.039831

                             ****ORCA TERMINATED NORMALLY****
TOTAL RUN TIME: 0 days 0 hours 0 minutes 11 seconds 864 msec
