                         Program Version 6.0.0  -   RELEASE  -
|  1> # MP2 scan of the potential energy curve for Ar...Ar
|  2>                 ! HFLD aug-cc-pvdz aug-cc-pvdz/C verytightscf
|  3>                 *xyz 0 1
|  4>                 Ar(1)	0    0	0.00000000000000
|  5>                 Ar(2)	4.0	0    0.00000000000000
|  6>                 Ar(3)	0.5599999999999996	2.7434285119171595    0.00000000000000
|  7>                 **                         ****END OF INPUT****

CARTESIAN COORDINATES (ANGSTROEM)
---------------------------------
  Ar     0.000000    0.000000    0.000000
  Ar     4.000000    0.000000    0.000000
  Ar     0.560000    2.743429    0.000000

 Total Charge           Charge          ....    0
 Multiplicity           Mult            ....    1
 Number of Electrons    NEL             ....   54
 Basis Dimension        Dim             ....   81

ORBITAL ENERGIES
----------------

  NO   OCC          E(Eh)            E(eV)
   0   2.0000    -118.610712     -3227.5616
   1   2.0000    -118.605695     -3227.4250
   2   2.0000    -118.605594     -3227.4223
   3   2.0000     -12.322867      -335.3223
   4   2.0000     -12.318768      -335.2107
   5   2.0000     -12.318647      -335.2074
   6   2.0000      -9.571455      -260.4525
   7   2.0000      -9.571454      -260.4525
   8   2.0000      -9.571452      -260.4525
   9   2.0000      -9.567357      -260.3410
  10   2.0000      -9.567259      -260.3384
  11   2.0000      -9.567259      -260.3384
  12   2.0000      -9.567245      -260.3380
  13   2.0000      -9.567148      -260.3353
  14   2.0000      -9.567145      -260.3352
  15   2.0000      -1.287848       -35.0441
  16   2.0000      -1.279008       -34.8036
  17   2.0000      -1.269643       -34.5487
  18   2.0000      -0.633523       -17.2390
  19   2.0000      -0.601762       -16.3748
  20   2.0000      -0.599546       -16.3145
  21   2.0000      -0.592637       -16.1265
  22   2.0000      -0.592317       -16.1178
  23   2.0000      -0.590618       -16.0715
  24   2.0000      -0.582714       -15.8565
  25   2.0000      -0.582064       -15.8388
  26   2.0000      -0.550144       -14.9702
  27   0.0000       0.115723         3.1490
  28   0.0000       0.128887         3.5072
  29   0.0000       0.131879         3.5886
  30   0.0000       0.133104         3.6219
  31   0.0000       0.158927         4.3246

MULLIKEN ATOMIC CHARGES
-----------------------
   0 Ar:    0.000869
   1 Ar:   -0.000349
   2 Ar:   -0.000520
Sum of atomic charges:   -0.0000000

LOEWDIN ATOMIC CHARGES
----------------------
   0 Ar:   -0.001345
   1 Ar:    0.001473
   2 Ar:   -0.000128

E(0)                                       ...  -1580.389801958
E(0)                                       ...  -1580.389801958
E(CORR)(strong-pairs)                      ...     -0.003666974
E(CORR)(weak-pairs)                        ...     -0.000137173
E(CORR)(corrected)                         ...     -0.003804148
E(TOT)                                     ...  -1580.393606106
FINAL SINGLE POINT ENERGY     -1580.392943775685

DIPOLE MOMENT
-------------

Method             : SCF
Type of density    : Electron Density
Multiplicity       :   1
Irrep              :   0
Energy             : -1580.3898019581265544 Eh
Relativity type    :
Basis              : AO
                                X                 Y                 Z
Electronic contribution:      0.000908478      -0.000986675       0.000000000
Nuclear contribution   :      0.000000000      -0.000000000       0.000000000
                        -----------------------------------------
Total Dipole Moment    :      0.000908478      -0.000986675       0.000000000
                        -----------------------------------------
Magnitude (a.u.)       :      0.001341216
Magnitude (Debye)      :      0.003409099

Rotational constants in cm-1:             0.111650             0.039734             0.029305
Rotational constants in MHz :          3347.170188          1191.190736           878.537028

                             ****ORCA TERMINATED NORMALLY****
TOTAL RUN TIME: 0 days 0 hours 0 minutes 11 seconds 763 msec
