                         Program Version 6.0.0  -   RELEASE  -
|  1> # MP2 scan of the potential energy curve for Ar...Ar
|  2>                 ! HFLD aug-cc-pvdz aug-cc-pvdz/C verytightscf
|  3>                 *xyz 0 1
|  4>                 Ar(1)	0    0	0.00000000000000
|  5>                 Ar(2)	4.0	0    0.00000000000000
|  6>                 Ar(3)	2.7199999999999998	2.932848444771738    0.00000000000000
|  7>                 **                         ****END OF INPUT****

CARTESIAN COORDINATES (ANGSTROEM)
---------------------------------
  Ar     0.000000    0.000000    0.000000
  Ar     4.000000    0.000000    0.000000
  Ar     2.720000    2.932848    0.000000

 Total Charge           Charge          ....    0
 Multiplicity           Mult            ....    1
 Number of Electrons    NEL             ....   54
 Basis Dimension        Dim             ....   81

ORBITAL ENERGIES
----------------

  NO   OCC          E(Eh)            E(eV)
   0   2.0000    -118.610468     -3227.5549
   1   2.0000    -118.608806     -3227.5097
   2   2.0000    -118.608805     -3227.5097
   3   2.0000     -12.322609      -335.3152
   4   2.0000     -12.321167      -335.2760
   5   2.0000     -12.321156      -335.2757
   6   2.0000      -9.571203      -260.4457
   7   2.0000      -9.571202      -260.4456
   8   2.0000      -9.571199      -260.4456
   9   2.0000      -9.569756      -260.4063
  10   2.0000      -9.569753      -260.4062
  11   2.0000      -9.569747      -260.4060
  12   2.0000      -9.569746      -260.4060
  13   2.0000      -9.569744      -260.4060
  14   2.0000      -9.569743      -260.4059
  15   2.0000      -1.281762       -34.8785
  16   2.0000      -1.278697       -34.7951
  17   2.0000      -1.275149       -34.6986
  18   2.0000      -0.613167       -16.6851
  19   2.0000      -0.599308       -16.3080
  20   2.0000      -0.595313       -16.1993
  21   2.0000      -0.593662       -16.1544
  22   2.0000      -0.591893       -16.1062
  23   2.0000      -0.587977       -15.9997
  24   2.0000      -0.587675       -15.9914
  25   2.0000      -0.586562       -15.9612
  26   2.0000      -0.571260       -15.5448
  27   0.0000       0.117903         3.2083
  28   0.0000       0.125436         3.4133
  29   0.0000       0.130572         3.5530
  30   0.0000       0.133988         3.6460
  31   0.0000       0.164411         4.4739

MULLIKEN ATOMIC CHARGES
-----------------------
   0 Ar:   -0.000304
   1 Ar:    0.000152
   2 Ar:    0.000152
Sum of atomic charges:   -0.0000000

LOEWDIN ATOMIC CHARGES
----------------------
   0 Ar:    0.001085
   1 Ar:   -0.000543
   2 Ar:   -0.000543

E(0)                                       ...  -1580.399639529
E(0)                                       ...  -1580.399639529
E(CORR)(strong-pairs)                      ...     -0.002321245
E(CORR)(weak-pairs)                        ...     -0.000064030
E(CORR)(corrected)                         ...     -0.002385275
E(TOT)                                     ...  -1580.402024804
FINAL SINGLE POINT ENERGY     -1580.401843136674

DIPOLE MOMENT
-------------

Method             : SCF
Type of density    : Electron Density
Multiplicity       :   1
Irrep              :   0
Energy             : -1580.3996395293700061 Eh
Relativity type    :
Basis              : AO
                                X                 Y                 Z
Electronic contribution:     -0.000604971      -0.000264058      -0.000000000
Nuclear contribution   :      0.000000000       0.000000000       0.000000000
                        -----------------------------------------
Total Dipole Moment    :     -0.000604971      -0.000264058      -0.000000000
                        -----------------------------------------
Magnitude (a.u.)       :      0.000660088
Magnitude (Debye)      :      0.001677810

Rotational constants in cm-1:             0.082420             0.047097             0.029971
Rotational constants in MHz :          2470.885392          1411.934510           898.503779

                             ****ORCA TERMINATED NORMALLY****
TOTAL RUN TIME: 0 days 0 hours 0 minutes 12 seconds 519 msec
