                         Program Version 6.0.0  -   RELEASE  -
|  1> # MP2 scan of the potential energy curve for Ar...Ar
|  2>                 ! HFLD aug-cc-pvdz aug-cc-pvdz/C verytightscf
|  3>                 *xyz 0 1
|  4>                 Ar(1)	0    0	0.00000000000000
|  5>                 Ar(2)	2.8	0    0.00000000000000
|  6>                 Ar(3)	-0.057142857142857356	2.7994168488950604    0.00000000000000
|  7>                 **                         ****END OF INPUT****

CARTESIAN COORDINATES (ANGSTROEM)
---------------------------------
  Ar     0.000000    0.000000    0.000000
  Ar     2.800000    0.000000    0.000000
  Ar    -0.057143    2.799417    0.000000

 Total Charge           Charge          ....    0
 Multiplicity           Mult            ....    1
 Number of Electrons    NEL             ....   54
 Basis Dimension        Dim             ....   81

ORBITAL ENERGIES
----------------

  NO   OCC          E(Eh)            E(eV)
   0   2.0000    -118.605991     -3227.4331
   1   2.0000    -118.605991     -3227.4331
   2   2.0000    -118.600899     -3227.2945
   3   2.0000     -12.319061      -335.2187
   4   2.0000     -12.319052      -335.2184
   5   2.0000     -12.314877      -335.1048
   6   2.0000      -9.567647      -260.3489
   7   2.0000      -9.567647      -260.3489
   8   2.0000      -9.567549      -260.3462
   9   2.0000      -9.567549      -260.3462
  10   2.0000      -9.567549      -260.3462
  11   2.0000      -9.567549      -260.3462
  12   2.0000      -9.563376      -260.2327
  13   2.0000      -9.563374      -260.2326
  14   2.0000      -9.563279      -260.2301
  15   2.0000      -1.291920       -35.1549
  16   2.0000      -1.278808       -34.7981
  17   2.0000      -1.266180       -34.4545
  18   2.0000      -0.634568       -17.2675
  19   2.0000      -0.634080       -17.2542
  20   2.0000      -0.602948       -16.4070
  21   2.0000      -0.593660       -16.1543
  22   2.0000      -0.590938       -16.0802
  23   2.0000      -0.588211       -16.0060
  24   2.0000      -0.579130       -15.7589
  25   2.0000      -0.550223       -14.9723
  26   2.0000      -0.548209       -14.9175
  27   0.0000       0.119189         3.2433
  28   0.0000       0.119316         3.2467
  29   0.0000       0.136240         3.7073
  30   0.0000       0.136852         3.7239
  31   0.0000       0.162602         4.4246

MULLIKEN ATOMIC CHARGES
-----------------------
   0 Ar:    0.003204
   1 Ar:   -0.001602
   2 Ar:   -0.001602
Sum of atomic charges:   -0.0000000

LOEWDIN ATOMIC CHARGES
----------------------
   0 Ar:   -0.007556
   1 Ar:    0.003778
   2 Ar:    0.003778

E(0)                                       ...  -1580.376899950
E(0)                                       ...  -1580.376899950
E(CORR)(strong-pairs)                      ...     -0.006621505
E(CORR)(weak-pairs)                        ...     -0.000139038
E(CORR)(corrected)                         ...     -0.006760544
E(TOT)                                     ...  -1580.383660493
FINAL SINGLE POINT ENERGY     -1580.382406664489

DIPOLE MOMENT
-------------

Method             : SCF
Type of density    : Electron Density
Multiplicity       :   1
Irrep              :   0
Energy             : -1580.3768999495330263 Eh
Relativity type    :
Basis              : AO
                                X                 Y                 Z
Electronic contribution:     -0.001528963      -0.001560485       0.000000000
Nuclear contribution   :      0.000000000       0.000000000       0.000000000
                        -----------------------------------------
Total Dipole Moment    :     -0.001528963      -0.001560485       0.000000000
                        -----------------------------------------
Magnitude (a.u.)       :      0.002184684
Magnitude (Debye)      :      0.005553024

Rotational constants in cm-1:             0.164840             0.052749             0.039961
Rotational constants in MHz :          4941.770783          1581.366651          1198.005038

                             ****ORCA TERMINATED NORMALLY****
TOTAL RUN TIME: 0 days 0 hours 0 minutes 15 seconds 395 msec
