                         Program Version 6.0.0  -   RELEASE  -
|  1> # MP2 scan of the potential energy curve for Ar...Ar
|  2>                 ! HFLD aug-cc-pvdz aug-cc-pvdz/C verytightscf
|  3>                 *xyz 0 1
|  4>                 Ar(1)	0    0	0.00000000000000
|  5>                 Ar(2)	3.6	0    0.00000000000000
|  6>                 Ar(3)	1.377777777777778	3.3259176771323924    0.00000000000000
|  7>                 **                         ****END OF INPUT****

CARTESIAN COORDINATES (ANGSTROEM)
---------------------------------
  Ar     0.000000    0.000000    0.000000
  Ar     3.600000    0.000000    0.000000
  Ar     1.377778    3.325918    0.000000

 Total Charge           Charge          ....    0
 Multiplicity           Mult            ....    1
 Number of Electrons    NEL             ....   54
 Basis Dimension        Dim             ....   81

ORBITAL ENERGIES
----------------

  NO   OCC          E(Eh)            E(eV)
   0   2.0000    -118.609993     -3227.5420
   1   2.0000    -118.609993     -3227.5420
   2   2.0000    -118.609571     -3227.5305
   3   2.0000     -12.322169      -335.3033
   4   2.0000     -12.322162      -335.3031
   5   2.0000     -12.321772      -335.2925
   6   2.0000      -9.570764      -260.4337
   7   2.0000      -9.570763      -260.4337
   8   2.0000      -9.570762      -260.4337
   9   2.0000      -9.570762      -260.4337
  10   2.0000      -9.570757      -260.4335
  11   2.0000      -9.570757      -260.4335
  12   2.0000      -9.570375      -260.4231
  13   2.0000      -9.570371      -260.4230
  14   2.0000      -9.570367      -260.4229
  15   2.0000      -1.280369       -34.8406
  16   2.0000      -1.278185       -34.7812
  17   2.0000      -1.277045       -34.7502
  18   2.0000      -0.605319       -16.4716
  19   2.0000      -0.599689       -16.3184
  20   2.0000      -0.595050       -16.1921
  21   2.0000      -0.594267       -16.1708
  22   2.0000      -0.591257       -16.0889
  23   2.0000      -0.589940       -16.0531
  24   2.0000      -0.587777       -15.9942
  25   2.0000      -0.582987       -15.8639
  26   2.0000      -0.580971       -15.8090
  27   0.0000       0.120124         3.2687
  28   0.0000       0.122705         3.3390
  29   0.0000       0.130088         3.5399
  30   0.0000       0.134405         3.6574
  31   0.0000       0.166839         4.5399

MULLIKEN ATOMIC CHARGES
-----------------------
   0 Ar:    0.000495
   1 Ar:   -0.000248
   2 Ar:   -0.000248
Sum of atomic charges:   -0.0000000

LOEWDIN ATOMIC CHARGES
----------------------
   0 Ar:   -0.000727
   1 Ar:    0.000363
   2 Ar:    0.000363

E(0)                                       ...  -1580.401461655
E(0)                                       ...  -1580.401461655
E(CORR)(strong-pairs)                      ...     -0.001914045
E(CORR)(weak-pairs)                        ...     -0.000057846
E(CORR)(corrected)                         ...     -0.001971892
E(TOT)                                     ...  -1580.403433547
FINAL SINGLE POINT ENERGY     -1580.403337556840

DIPOLE MOMENT
-------------

Method             : SCF
Type of density    : Electron Density
Multiplicity       :   1
Irrep              :   0
Energy             : -1580.4014616548515733 Eh
Relativity type    :
Basis              : AO
                                X                 Y                 Z
Electronic contribution:      0.000012985       0.000008685       0.000000000
Nuclear contribution   :      0.000000000      -0.000000000       0.000000000
                        -----------------------------------------
Total Dipole Moment    :      0.000012985       0.000008685       0.000000000
                        -----------------------------------------
Magnitude (a.u.)       :      0.000015622
Magnitude (Debye)      :      0.000039707

Rotational constants in cm-1:             0.070646             0.052749             0.030200
Rotational constants in MHz :          2117.901764          1581.366651           905.362586

                             ****ORCA TERMINATED NORMALLY****
TOTAL RUN TIME: 0 days 0 hours 0 minutes 12 seconds 648 msec
