                         Program Version 6.0.0  -   RELEASE  -
|  1> # MP2 scan of the potential energy curve for Ar...Ar
|  2>                 ! HFLD aug-cc-pvdz aug-cc-pvdz/C verytightscf
|  3>                 *xyz 0 1
|  4>                 Ar(1)	0    0	0.00000000000000
|  5>                 Ar(2)	2.8	0    0.00000000000000
|  6>                 Ar(3)	2.4285714285714284	3.178370780183856    0.00000000000000
|  7>                 **                         ****END OF INPUT****

CARTESIAN COORDINATES (ANGSTROEM)
---------------------------------
  Ar     0.000000    0.000000    0.000000
  Ar     2.800000    0.000000    0.000000
  Ar     2.428571    3.178371    0.000000

 Total Charge           Charge          ....    0
 Multiplicity           Mult            ....    1
 Number of Electrons    NEL             ....   54
 Basis Dimension        Dim             ....   81

ORBITAL ENERGIES
----------------

  NO   OCC          E(Eh)            E(eV)
   0   2.0000    -118.609234     -3227.5213
   1   2.0000    -118.605792     -3227.4277
   2   2.0000    -118.604097     -3227.3816
   3   2.0000     -12.321606      -335.2879
   4   2.0000     -12.318857      -335.2131
   5   2.0000     -12.317376      -335.1728
   6   2.0000      -9.570194      -260.4182
   7   2.0000      -9.570184      -260.4179
   8   2.0000      -9.570183      -260.4179
   9   2.0000      -9.567449      -260.3435
  10   2.0000      -9.567351      -260.3409
  11   2.0000      -9.567350      -260.3408
  12   2.0000      -9.565960      -260.3030
  13   2.0000      -9.565872      -260.3006
  14   2.0000      -9.565864      -260.3004
  15   2.0000      -1.288463       -35.0609
  16   2.0000      -1.278602       -34.7925
  17   2.0000      -1.269111       -34.5343
  18   2.0000      -0.633791       -17.2463
  19   2.0000      -0.614694       -16.7267
  20   2.0000      -0.600340       -16.3361
  21   2.0000      -0.593878       -16.1602
  22   2.0000      -0.591412       -16.0931
  23   2.0000      -0.587815       -15.9953
  24   2.0000      -0.582035       -15.8380
  25   2.0000      -0.570056       -15.5120
  26   2.0000      -0.549893       -14.9633
  27   0.0000       0.116918         3.1815
  28   0.0000       0.121790         3.3141
  29   0.0000       0.135099         3.6762
  30   0.0000       0.135839         3.6964
  31   0.0000       0.164249         4.4694

MULLIKEN ATOMIC CHARGES
-----------------------
   0 Ar:   -0.001290
   1 Ar:    0.002162
   2 Ar:   -0.000872
Sum of atomic charges:   -0.0000000

LOEWDIN ATOMIC CHARGES
----------------------
   0 Ar:    0.001566
   1 Ar:   -0.004644
   2 Ar:    0.003078

E(0)                                       ...  -1580.386811121
E(0)                                       ...  -1580.386811121
E(CORR)(strong-pairs)                      ...     -0.005030280
E(CORR)(weak-pairs)                        ...     -0.000121085
E(CORR)(corrected)                         ...     -0.005151365
E(TOT)                                     ...  -1580.391962485
FINAL SINGLE POINT ENERGY     -1580.391151731276

DIPOLE MOMENT
-------------

Method             : SCF
Type of density    : Electron Density
Multiplicity       :   1
Irrep              :   0
Energy             : -1580.3868111206816138 Eh
Relativity type    :
Basis              : AO
                                X                 Y                 Z
Electronic contribution:      0.001314090       0.000431764      -0.000000000
Nuclear contribution   :     -0.000000000       0.000000000       0.000000000
                        -----------------------------------------
Total Dipole Moment    :      0.001314090       0.000431764      -0.000000000
                        -----------------------------------------
Magnitude (a.u.)       :      0.001383204
Magnitude (Debye)      :      0.003515825

Rotational constants in cm-1:             0.129494             0.052090             0.037147
Rotational constants in MHz :          3882.130224          1561.604670          1113.638486

                             ****ORCA TERMINATED NORMALLY****
TOTAL RUN TIME: 0 days 0 hours 0 minutes 15 seconds 935 msec
