                         Program Version 6.0.0  -   RELEASE  -
|  1> # MP2 scan of the potential energy curve for Ar...Ar
|  2>                 ! HFLD aug-cc-pvdz aug-cc-pvdz/C verytightscf
|  3>                 *xyz 0 1
|  4>                 Ar(1)	0    0	0.00000000000000
|  5>                 Ar(2)	3.6	0    0.00000000000000
|  6>                 Ar(3)	1.333333333333333	3.7712361663282534    0.00000000000000
|  7>                 **                         ****END OF INPUT****

CARTESIAN COORDINATES (ANGSTROEM)
---------------------------------
  Ar     0.000000    0.000000    0.000000
  Ar     3.600000    0.000000    0.000000
  Ar     1.333333    3.771236    0.000000

 Total Charge           Charge          ....    0
 Multiplicity           Mult            ....    1
 Number of Electrons    NEL             ....   54
 Basis Dimension        Dim             ....   81

ORBITAL ENERGIES
----------------

  NO   OCC          E(Eh)            E(eV)
   0   2.0000    -118.610449     -3227.5544
   1   2.0000    -118.610031     -3227.5430
   2   2.0000    -118.609928     -3227.5402
   3   2.0000     -12.322595      -335.3149
   4   2.0000     -12.322212      -335.3044
   5   2.0000     -12.322090      -335.3011
   6   2.0000      -9.571186      -260.4452
   7   2.0000      -9.571185      -260.4452
   8   2.0000      -9.571183      -260.4451
   9   2.0000      -9.570806      -260.4349
  10   2.0000      -9.570806      -260.4349
  11   2.0000      -9.570800      -260.4347
  12   2.0000      -9.570691      -260.4317
  13   2.0000      -9.570689      -260.4317
  14   2.0000      -9.570685      -260.4316
  15   2.0000      -1.279844       -34.8263
  16   2.0000      -1.278645       -34.7937
  17   2.0000      -1.277367       -34.7589
  18   2.0000      -0.602664       -16.3993
  19   2.0000      -0.597043       -16.2464
  20   2.0000      -0.593628       -16.1534
  21   2.0000      -0.593297       -16.1444
  22   2.0000      -0.591875       -16.1057
  23   2.0000      -0.590314       -16.0633
  24   2.0000      -0.589999       -16.0547
  25   2.0000      -0.587306       -15.9814
  26   2.0000      -0.581870       -15.8335
  27   0.0000       0.121262         3.2997
  28   0.0000       0.126494         3.4421
  29   0.0000       0.128396         3.4938
  30   0.0000       0.131508         3.5785
  31   0.0000       0.161485         4.3942

MULLIKEN ATOMIC CHARGES
-----------------------
   0 Ar:    0.000421
   1 Ar:   -0.000155
   2 Ar:   -0.000266
Sum of atomic charges:    0.0000000

LOEWDIN ATOMIC CHARGES
----------------------
   0 Ar:   -0.000529
   1 Ar:    0.000077
   2 Ar:    0.000451

E(0)                                       ...  -1580.402123498
E(0)                                       ...  -1580.402123498
E(CORR)(strong-pairs)                      ...     -0.001308669
E(CORR)(weak-pairs)                        ...     -0.000095121
E(CORR)(corrected)                         ...     -0.001403790
E(TOT)                                     ...  -1580.403527288
FINAL SINGLE POINT ENERGY     -1580.403485343389

DIPOLE MOMENT
-------------

Method             : SCF
Type of density    : Electron Density
Multiplicity       :   1
Irrep              :   0
Energy             : -1580.4021234981748876 Eh
Relativity type    :
Basis              : AO
                                X                 Y                 Z
Electronic contribution:     -0.000187173       0.000089894       0.000000000
Nuclear contribution   :      0.000000000      -0.000000000       0.000000000
                        -----------------------------------------
Total Dipole Moment    :     -0.000187173       0.000089894       0.000000000
                        -----------------------------------------
Magnitude (a.u.)       :      0.000207641
Magnitude (Debye)      :      0.000527782

Rotational constants in cm-1:             0.068008             0.042618             0.026200
Rotational constants in MHz :          2038.814807          1277.662474           785.447012

                             ****ORCA TERMINATED NORMALLY****
TOTAL RUN TIME: 0 days 0 hours 0 minutes 12 seconds 128 msec
