                         Program Version 6.0.0  -   RELEASE  -
|  1> # MP2 scan of the potential energy curve for Ar...Ar
|  2>                 ! HFLD aug-cc-pvdz aug-cc-pvdz/C verytightscf
|  3>                 *xyz 0 1
|  4>                 Ar(1)	0    0	0.00000000000000
|  5>                 Ar(2)	2.8	0    0.00000000000000
|  6>                 Ar(3)	0.9714285714285708	2.6260857812745275    0.00000000000000
|  7>                 **                         ****END OF INPUT****

CARTESIAN COORDINATES (ANGSTROEM)
---------------------------------
  Ar     0.000000    0.000000    0.000000
  Ar     2.800000    0.000000    0.000000
  Ar     0.971429    2.626086    0.000000

 Total Charge           Charge          ....    0
 Multiplicity           Mult            ....    1
 Number of Electrons    NEL             ....   54
 Basis Dimension        Dim             ....   81

ORBITAL ENERGIES
----------------

  NO   OCC          E(Eh)            E(eV)
   0   2.0000    -118.605135     -3227.4098
   1   2.0000    -118.605135     -3227.4098
   2   2.0000    -118.601403     -3227.3082
   3   2.0000     -12.318391      -335.2005
   4   2.0000     -12.318379      -335.2001
   5   2.0000     -12.315341      -335.1175
   6   2.0000      -9.566977      -260.3307
   7   2.0000      -9.566975      -260.3306
   8   2.0000      -9.566874      -260.3279
   9   2.0000      -9.566872      -260.3278
  10   2.0000      -9.566869      -260.3277
  11   2.0000      -9.566868      -260.3277
  12   2.0000      -9.563883      -260.2465
  13   2.0000      -9.563801      -260.2442
  14   2.0000      -9.563744      -260.2427
  15   2.0000      -1.293877       -35.2082
  16   2.0000      -1.276031       -34.7226
  17   2.0000      -1.267726       -34.4966
  18   2.0000      -0.645166       -17.5559
  19   2.0000      -0.625774       -17.0282
  20   2.0000      -0.604838       -16.4585
  21   2.0000      -0.604767       -16.4565
  22   2.0000      -0.587925       -15.9983
  23   2.0000      -0.580579       -15.7983
  24   2.0000      -0.573581       -15.6079
  25   2.0000      -0.553796       -15.0695
  26   2.0000      -0.547232       -14.8909
  27   0.0000       0.114468         3.1148
  28   0.0000       0.115776         3.1504
  29   0.0000       0.135166         3.6781
  30   0.0000       0.139182         3.7873
  31   0.0000       0.173072         4.7095

MULLIKEN ATOMIC CHARGES
-----------------------
   0 Ar:   -0.000175
   1 Ar:    0.000088
   2 Ar:    0.000088
Sum of atomic charges:   -0.0000000

LOEWDIN ATOMIC CHARGES
----------------------
   0 Ar:   -0.004998
   1 Ar:    0.002499
   2 Ar:    0.002499

E(0)                                       ...  -1580.374567011
E(0)                                       ...  -1580.374567011
E(CORR)(strong-pairs)                      ...     -0.007641437
E(CORR)(weak-pairs)                        ...     -0.000181535
E(CORR)(corrected)                         ...     -0.007822972
E(TOT)                                     ...  -1580.382389983
FINAL SINGLE POINT ENERGY     -1580.381035011727

DIPOLE MOMENT
-------------

Method             : SCF
Type of density    : Electron Density
Multiplicity       :   1
Irrep              :   0
Energy             : -1580.3745670113314645 Eh
Relativity type    :
Basis              : AO
                                X                 Y                 Z
Electronic contribution:      0.000672634       0.000468368       0.000000000
Nuclear contribution   :     -0.000000000       0.000000000       0.000000000
                        -----------------------------------------
Total Dipole Moment    :      0.000672634       0.000468368       0.000000000
                        -----------------------------------------
Magnitude (a.u.)       :      0.000819637
Magnitude (Debye)      :      0.002083353

Rotational constants in cm-1:             0.119883             0.082420             0.048841
Rotational constants in MHz :          3594.015115          2470.885392          1464.228380

                             ****ORCA TERMINATED NORMALLY****
TOTAL RUN TIME: 0 days 0 hours 0 minutes 16 seconds 977 msec
