                         Program Version 6.0.0  -   RELEASE  -
|  1> # MP2 scan of the potential energy curve for Ar...Ar
|  2>                 ! HFLD aug-cc-pvdz aug-cc-pvdz/C verytightscf
|  3>                 *xyz 0 1
|  4>                 Ar(1)	0    0	0.00000000000000
|  5>                 Ar(2)	4.8	0    0.00000000000000
|  6>                 Ar(3)	3.733333333333333	3.016988933062603    0.00000000000000
|  7>                 **                         ****END OF INPUT****

CARTESIAN COORDINATES (ANGSTROEM)
---------------------------------
  Ar     0.000000    0.000000    0.000000
  Ar     4.800000    0.000000    0.000000
  Ar     3.733333    3.016989    0.000000

 Total Charge           Charge          ....    0
 Multiplicity           Mult            ....    1
 Number of Electrons    NEL             ....   54
 Basis Dimension        Dim             ....   81

ORBITAL ENERGIES
----------------

  NO   OCC          E(Eh)            E(eV)
   0   2.0000    -118.610644     -3227.5597
   1   2.0000    -118.608906     -3227.5124
   2   2.0000    -118.608906     -3227.5124
   3   2.0000     -12.322829      -335.3212
   4   2.0000     -12.321295      -335.2795
   5   2.0000     -12.321282      -335.2791
   6   2.0000      -9.571409      -260.4513
   7   2.0000      -9.571406      -260.4512
   8   2.0000      -9.571406      -260.4512
   9   2.0000      -9.569874      -260.4095
  10   2.0000      -9.569871      -260.4094
  11   2.0000      -9.569866      -260.4093
  12   2.0000      -9.569864      -260.4093
  13   2.0000      -9.569864      -260.4092
  14   2.0000      -9.569863      -260.4092
  15   2.0000      -1.281729       -34.8776
  16   2.0000      -1.278922       -34.8012
  17   2.0000      -1.275230       -34.7008
  18   2.0000      -0.612902       -16.6779
  19   2.0000      -0.595686       -16.2094
  20   2.0000      -0.595158       -16.1951
  21   2.0000      -0.592354       -16.1188
  22   2.0000      -0.592277       -16.1167
  23   2.0000      -0.591773       -16.1030
  24   2.0000      -0.588067       -16.0021
  25   2.0000      -0.588008       -16.0005
  26   2.0000      -0.571350       -15.5472
  27   0.0000       0.119416         3.2495
  28   0.0000       0.125156         3.4057
  29   0.0000       0.129715         3.5297
  30   0.0000       0.134426         3.6579
  31   0.0000       0.153097         4.1660

MULLIKEN ATOMIC CHARGES
-----------------------
   0 Ar:   -0.000103
   1 Ar:    0.000052
   2 Ar:    0.000052
Sum of atomic charges:    0.0000000

LOEWDIN ATOMIC CHARGES
----------------------
   0 Ar:    0.000337
   1 Ar:   -0.000168
   2 Ar:   -0.000168

E(0)                                       ...  -1580.399886330
E(0)                                       ...  -1580.399886330
E(CORR)(strong-pairs)                      ...     -0.001752443
E(CORR)(weak-pairs)                        ...     -0.000198415
E(CORR)(corrected)                         ...     -0.001950859
E(TOT)                                     ...  -1580.401837188
FINAL SINGLE POINT ENERGY     -1580.401649966108

DIPOLE MOMENT
-------------

Method             : SCF
Type of density    : Electron Density
Multiplicity       :   1
Irrep              :   0
Energy             : -1580.3998863299220830 Eh
Relativity type    :
Basis              : AO
                                X                 Y                 Z
Electronic contribution:     -0.000345268      -0.000122047       0.000000000
Nuclear contribution   :      0.000000000      -0.000000000       0.000000000
                        -----------------------------------------
Total Dipole Moment    :     -0.000345268      -0.000122047       0.000000000
                        -----------------------------------------
Magnitude (a.u.)       :      0.000366204
Magnitude (Debye)      :      0.000930817

Rotational constants in cm-1:             0.082420             0.030907             0.022478
Rotational constants in MHz :          2470.885392           926.582022           673.877834

                             ****ORCA TERMINATED NORMALLY****
TOTAL RUN TIME: 0 days 0 hours 0 minutes 6 seconds 859 msec
