                         Program Version 6.0.0  -   RELEASE  -
|  1> # MP2 scan of the potential energy curve for Ar...Ar
|  2>                 ! HFLD aug-cc-pvdz aug-cc-pvdz/C verytightscf
|  3>                 *xyz 0 1
|  4>                 Ar(1)	0    0	0.00000000000000
|  5>                 Ar(2)	3.2	0    0.00000000000000
|  6>                 Ar(3)	1.1750000000000005	2.9764702249476644    0.00000000000000
|  7>                 **                         ****END OF INPUT****

CARTESIAN COORDINATES (ANGSTROEM)
---------------------------------
  Ar     0.000000    0.000000    0.000000
  Ar     3.200000    0.000000    0.000000
  Ar     1.175000    2.976470    0.000000

 Total Charge           Charge          ....    0
 Multiplicity           Mult            ....    1
 Number of Electrons    NEL             ....   54
 Basis Dimension        Dim             ....   81

ORBITAL ENERGIES
----------------

  NO   OCC          E(Eh)            E(eV)
   0   2.0000    -118.608700     -3227.5068
   1   2.0000    -118.608700     -3227.5068
   2   2.0000    -118.607396     -3227.4713
   3   2.0000     -12.321103      -335.2743
   4   2.0000     -12.321096      -335.2741
   5   2.0000     -12.319975      -335.2436
   6   2.0000      -9.569692      -260.4046
   7   2.0000      -9.569692      -260.4046
   8   2.0000      -9.569683      -260.4043
   9   2.0000      -9.569683      -260.4043
  10   2.0000      -9.569680      -260.4042
  11   2.0000      -9.569679      -260.4042
  12   2.0000      -9.568560      -260.3738
  13   2.0000      -9.568551      -260.3735
  14   2.0000      -9.568547      -260.3734
  15   2.0000      -1.283633       -34.9294
  16   2.0000      -1.277382       -34.7593
  17   2.0000      -1.274295       -34.6753
  18   2.0000      -0.619002       -16.8439
  19   2.0000      -0.608115       -16.5477
  20   2.0000      -0.598162       -16.2768
  21   2.0000      -0.597221       -16.2512
  22   2.0000      -0.590123       -16.0581
  23   2.0000      -0.587004       -15.9732
  24   2.0000      -0.582994       -15.8641
  25   2.0000      -0.573257       -15.5991
  26   2.0000      -0.569587       -15.4993
  27   0.0000       0.116997         3.1837
  28   0.0000       0.119175         3.2429
  29   0.0000       0.134375         3.6565
  30   0.0000       0.135819         3.6958
  31   0.0000       0.170569         4.6414

MULLIKEN ATOMIC CHARGES
-----------------------
   0 Ar:    0.000466
   1 Ar:   -0.000233
   2 Ar:   -0.000233
Sum of atomic charges:   -0.0000000

LOEWDIN ATOMIC CHARGES
----------------------
   0 Ar:   -0.001930
   1 Ar:    0.000965
   2 Ar:    0.000965

E(0)                                       ...  -1580.396231132
E(0)                                       ...  -1580.396231132
E(CORR)(strong-pairs)                      ...     -0.003801700
E(CORR)(weak-pairs)                        ...     -0.000112020
E(CORR)(corrected)                         ...     -0.003913719
E(TOT)                                     ...  -1580.400144852
FINAL SINGLE POINT ENERGY     -1580.399771367073

DIPOLE MOMENT
-------------

Method             : SCF
Type of density    : Electron Density
Multiplicity       :   1
Irrep              :   0
Energy             : -1580.3962311321001835 Eh
Relativity type    :
Basis              : AO
                                X                 Y                 Z
Electronic contribution:      0.000271777       0.000184913       0.000000000
Nuclear contribution   :      0.000000000      -0.000000000       0.000000000
                        -----------------------------------------
Total Dipole Moment    :      0.000271777       0.000184913       0.000000000
                        -----------------------------------------
Magnitude (a.u.)       :      0.000328718
Magnitude (Debye)      :      0.000835534

Rotational constants in cm-1:             0.090426             0.065122             0.037858
Rotational constants in MHz :          2710.914258          1952.304507          1134.952142

                             ****ORCA TERMINATED NORMALLY****
TOTAL RUN TIME: 0 days 0 hours 0 minutes 15 seconds 498 msec
