                         Program Version 6.0.0  -   RELEASE  -
|  1> # MP2 scan of the potential energy curve for Ar...Ar
|  2>                 ! HFLD aug-cc-pvdz aug-cc-pvdz/C verytightscf
|  3>                 *xyz 0 1
|  4>                 Ar(1)	0    0	0.00000000000000
|  5>                 Ar(2)	3.2	0    0.00000000000000
|  6>                 Ar(3)	1.0749999999999997	3.852839861712397    0.00000000000000
|  7>                 **                         ****END OF INPUT****

CARTESIAN COORDINATES (ANGSTROEM)
---------------------------------
  Ar     0.000000    0.000000    0.000000
  Ar     3.200000    0.000000    0.000000
  Ar     1.075000    3.852840    0.000000

 Total Charge           Charge          ....    0
 Multiplicity           Mult            ....    1
 Number of Electrons    NEL             ....   54
 Basis Dimension        Dim             ....   81

ORBITAL ENERGIES
----------------

  NO   OCC          E(Eh)            E(eV)
   0   2.0000    -118.610535     -3227.5567
   1   2.0000    -118.608893     -3227.5121
   2   2.0000    -118.608792     -3227.5093
   3   2.0000     -12.322685      -335.3173
   4   2.0000     -12.321265      -335.2787
   5   2.0000     -12.321143      -335.2754
   6   2.0000      -9.571275      -260.4476
   7   2.0000      -9.571274      -260.4476
   8   2.0000      -9.571272      -260.4475
   9   2.0000      -9.569851      -260.4089
  10   2.0000      -9.569842      -260.4087
  11   2.0000      -9.569842      -260.4086
  12   2.0000      -9.569738      -260.4058
  13   2.0000      -9.569730      -260.4056
  14   2.0000      -9.569727      -260.4055
  15   2.0000      -1.281722       -34.8774
  16   2.0000      -1.278799       -34.7979
  17   2.0000      -1.275161       -34.6989
  18   2.0000      -0.612970       -16.6798
  19   2.0000      -0.598388       -16.2830
  20   2.0000      -0.595219       -16.1967
  21   2.0000      -0.592858       -16.1325
  22   2.0000      -0.592071       -16.1111
  23   2.0000      -0.589879       -16.0514
  24   2.0000      -0.587985       -15.9999
  25   2.0000      -0.586366       -15.9558
  26   2.0000      -0.571283       -15.5454
  27   0.0000       0.118502         3.2246
  28   0.0000       0.127747         3.4762
  29   0.0000       0.130068         3.5393
  30   0.0000       0.132482         3.6050
  31   0.0000       0.160304         4.3621

MULLIKEN ATOMIC CHARGES
-----------------------
   0 Ar:    0.000587
   1 Ar:   -0.000287
   2 Ar:   -0.000299
Sum of atomic charges:   -0.0000000

LOEWDIN ATOMIC CHARGES
----------------------
   0 Ar:   -0.000900
   1 Ar:   -0.000005
   2 Ar:    0.000905

E(0)                                       ...  -1580.399746699
E(0)                                       ...  -1580.399746699
E(CORR)(strong-pairs)                      ...     -0.002071926
E(CORR)(weak-pairs)                        ...     -0.000126490
E(CORR)(corrected)                         ...     -0.002198415
E(TOT)                                     ...  -1580.401945114
FINAL SINGLE POINT ENERGY     -1580.401765255238

DIPOLE MOMENT
-------------

Method             : SCF
Type of density    : Electron Density
Multiplicity       :   1
Irrep              :   0
Energy             : -1580.3997466987354983 Eh
Relativity type    :
Basis              : AO
                                X                 Y                 Z
Electronic contribution:     -0.000403273       0.000482623       0.000000000
Nuclear contribution   :      0.000000000      -0.000000000       0.000000000
                        -----------------------------------------
Total Dipole Moment    :     -0.000403273       0.000482623       0.000000000
                        -----------------------------------------
Magnitude (a.u.)       :      0.000628931
Magnitude (Debye)      :      0.001598615

Rotational constants in cm-1:             0.085474             0.041118             0.027762
Rotational constants in MHz :          2562.437851          1232.682316           832.298237

                             ****ORCA TERMINATED NORMALLY****
TOTAL RUN TIME: 0 days 0 hours 0 minutes 9 seconds 974 msec
