                         Program Version 6.0.0  -   RELEASE  -
|  1> # MP2 scan of the potential energy curve for Ar...Ar
|  2>                 ! HFLD aug-cc-pvdz aug-cc-pvdz/C verytightscf
|  3>                 *xyz 0 1
|  4>                 Ar(1)	0    0	0.00000000000000
|  5>                 Ar(2)	4.0	0    0.00000000000000
|  6>                 Ar(3)	0.7400000000000002	3.5231236140674937    0.00000000000000
|  7>                 **                         ****END OF INPUT****

CARTESIAN COORDINATES (ANGSTROEM)
---------------------------------
  Ar     0.000000    0.000000    0.000000
  Ar     4.000000    0.000000    0.000000
  Ar     0.740000    3.523124    0.000000

 Total Charge           Charge          ....    0
 Multiplicity           Mult            ....    1
 Number of Electrons    NEL             ....   54
 Basis Dimension        Dim             ....   81

ORBITAL ENERGIES
----------------

  NO   OCC          E(Eh)            E(eV)
   0   2.0000    -118.610460     -3227.5547
   1   2.0000    -118.610048     -3227.5435
   2   2.0000    -118.609925     -3227.5402
   3   2.0000     -12.322621      -335.3156
   4   2.0000     -12.322246      -335.3054
   5   2.0000     -12.322084      -335.3010
   6   2.0000      -9.571209      -260.4458
   7   2.0000      -9.571207      -260.4458
   8   2.0000      -9.571205      -260.4457
   9   2.0000      -9.570836      -260.4357
  10   2.0000      -9.570835      -260.4357
  11   2.0000      -9.570830      -260.4355
  12   2.0000      -9.570687      -260.4316
  13   2.0000      -9.570684      -260.4315
  14   2.0000      -9.570680      -260.4315
  15   2.0000      -1.279818       -34.8256
  16   2.0000      -1.278725       -34.7959
  17   2.0000      -1.277358       -34.7587
  18   2.0000      -0.602388       -16.3918
  19   2.0000      -0.597125       -16.2486
  20   2.0000      -0.593568       -16.1518
  21   2.0000      -0.592591       -16.1252
  22   2.0000      -0.592013       -16.1095
  23   2.0000      -0.591153       -16.0861
  24   2.0000      -0.590288       -16.0625
  25   2.0000      -0.587106       -15.9760
  26   2.0000      -0.581890       -15.8340
  27   0.0000       0.122217         3.3257
  28   0.0000       0.128493         3.4965
  29   0.0000       0.128646         3.5006
  30   0.0000       0.129584         3.5262
  31   0.0000       0.156593         4.2611

MULLIKEN ATOMIC CHARGES
-----------------------
   0 Ar:    0.000462
   1 Ar:   -0.000236
   2 Ar:   -0.000225
Sum of atomic charges:   -0.0000000

LOEWDIN ATOMIC CHARGES
----------------------
   0 Ar:   -0.000626
   1 Ar:    0.000410
   2 Ar:    0.000216

E(0)                                       ...  -1580.402136713
E(0)                                       ...  -1580.402136713
E(CORR)(strong-pairs)                      ...     -0.001226744
E(CORR)(weak-pairs)                        ...     -0.000117515
E(CORR)(corrected)                         ...     -0.001344259
E(TOT)                                     ...  -1580.403480972
FINAL SINGLE POINT ENERGY     -1580.403423027963

DIPOLE MOMENT
-------------

Method             : SCF
Type of density    : Electron Density
Multiplicity       :   1
Irrep              :   0
Energy             : -1580.4021367130753788 Eh
Relativity type    :
Basis              : AO
                                X                 Y                 Z
Electronic contribution:     -0.000055683      -0.000283796       0.000000000
Nuclear contribution   :     -0.000000000       0.000000000       0.000000000
                        -----------------------------------------
Total Dipole Moment    :     -0.000055683      -0.000283796       0.000000000
                        -----------------------------------------
Magnitude (a.u.)       :      0.000289208
Magnitude (Debye)      :      0.000735107

Rotational constants in cm-1:             0.074275             0.036216             0.024346
Rotational constants in MHz :          2226.716799          1085.739528           729.861531

                             ****ORCA TERMINATED NORMALLY****
TOTAL RUN TIME: 0 days 0 hours 0 minutes 12 seconds 245 msec
