                         Program Version 6.0.0  -   RELEASE  -
|  1> # MP2 scan of the potential energy curve for Ar...Ar
|  2>                 ! HFLD aug-cc-pvdz aug-cc-pvdz/C verytightscf
|  3>                 *xyz 0 1
|  4>                 Ar(1)	0    0	0.00000000000000
|  5>                 Ar(2)	3.2	0    0.00000000000000
|  6>                 Ar(3)	-0.39999999999999925	3.174901573277509    0.00000000000000
|  7>                 **                         ****END OF INPUT****

CARTESIAN COORDINATES (ANGSTROEM)
---------------------------------
  Ar     0.000000    0.000000    0.000000
  Ar     3.200000    0.000000    0.000000
  Ar    -0.400000    3.174902    0.000000

 Total Charge           Charge          ....    0
 Multiplicity           Mult            ....    1
 Number of Electrons    NEL             ....   54
 Basis Dimension        Dim             ....   81

ORBITAL ENERGIES
----------------

  NO   OCC          E(Eh)            E(eV)
   0   2.0000    -118.608951     -3227.5136
   1   2.0000    -118.608951     -3227.5136
   2   2.0000    -118.607275     -3227.4680
   3   2.0000     -12.321349      -335.2810
   4   2.0000     -12.321341      -335.2807
   5   2.0000     -12.319853      -335.2403
   6   2.0000      -9.569927      -260.4109
   7   2.0000      -9.569927      -260.4109
   8   2.0000      -9.569917      -260.4107
   9   2.0000      -9.569917      -260.4107
  10   2.0000      -9.569917      -260.4107
  11   2.0000      -9.569916      -260.4107
  12   2.0000      -9.568438      -260.3704
  13   2.0000      -9.568434      -260.3703
  14   2.0000      -9.568428      -260.3702
  15   2.0000      -1.282949       -34.9108
  16   2.0000      -1.278518       -34.7902
  17   2.0000      -1.273750       -34.6605
  18   2.0000      -0.614112       -16.7108
  19   2.0000      -0.611798       -16.6479
  20   2.0000      -0.596416       -16.2293
  21   2.0000      -0.592117       -16.1123
  22   2.0000      -0.591588       -16.0979
  23   2.0000      -0.591059       -16.0835
  24   2.0000      -0.586367       -15.9559
  25   2.0000      -0.572257       -15.5719
  26   2.0000      -0.569454       -15.4956
  27   0.0000       0.123121         3.3503
  28   0.0000       0.125282         3.4091
  29   0.0000       0.133181         3.6240
  30   0.0000       0.135227         3.6797
  31   0.0000       0.153090         4.1658

MULLIKEN ATOMIC CHARGES
-----------------------
   0 Ar:    0.001267
   1 Ar:   -0.000634
   2 Ar:   -0.000634
Sum of atomic charges:   -0.0000000

LOEWDIN ATOMIC CHARGES
----------------------
   0 Ar:   -0.002691
   1 Ar:    0.001346
   2 Ar:    0.001346

E(0)                                       ...  -1580.396820051
E(0)                                       ...  -1580.396820051
E(CORR)(strong-pairs)                      ...     -0.003269114
E(CORR)(weak-pairs)                        ...     -0.000191118
E(CORR)(corrected)                         ...     -0.003460232
E(TOT)                                     ...  -1580.400280283
FINAL SINGLE POINT ENERGY     -1580.399916004112

DIPOLE MOMENT
-------------

Method             : SCF
Type of density    : Electron Density
Multiplicity       :   1
Irrep              :   0
Energy             : -1580.3968200507474648 Eh
Relativity type    :
Basis              : AO
                                X                 Y                 Z
Electronic contribution:     -0.000790417      -0.000896283      -0.000000000
Nuclear contribution   :     -0.000000000      -0.000000000       0.000000000
                        -----------------------------------------
Total Dipole Moment    :     -0.000790417      -0.000896283      -0.000000000
                        -----------------------------------------
Magnitude (a.u.)       :      0.001195024
Magnitude (Debye)      :      0.003037509

Rotational constants in cm-1:             0.141291             0.036631             0.029089
Rotational constants in MHz :          4235.803529          1098.171285           872.077197

                             ****ORCA TERMINATED NORMALLY****
TOTAL RUN TIME: 0 days 0 hours 0 minutes 10 seconds 141 msec
