                         Program Version 6.0.0  -   RELEASE  -
|  1> # MP2 scan of the potential energy curve for Ar...Ar
|  2>                 ! HFLD aug-cc-pvdz aug-cc-pvdz/C verytightscf
|  3>                 *xyz 0 1
|  4>                 Ar(1)	0    0	0.00000000000000
|  5>                 Ar(2)	3.6	0    0.00000000000000
|  6>                 Ar(3)	1.8	2.1447610589527213    0.00000000000000
|  7>                 **                         ****END OF INPUT****

CARTESIAN COORDINATES (ANGSTROEM)
---------------------------------
  Ar     0.000000    0.000000    0.000000
  Ar     3.600000    0.000000    0.000000
  Ar     1.800000    2.144761    0.000000

 Total Charge           Charge          ....    0
 Multiplicity           Mult            ....    1
 Number of Electrons    NEL             ....   54
 Basis Dimension        Dim             ....   81

ORBITAL ENERGIES
----------------

  NO   OCC          E(Eh)            E(eV)
   0   2.0000    -118.605947     -3227.4319
   1   2.0000    -118.605947     -3227.4319
   2   2.0000    -118.601020     -3227.2978
   3   2.0000     -12.319039      -335.2181
   4   2.0000     -12.319032      -335.2179
   5   2.0000     -12.314983      -335.1077
   6   2.0000      -9.567630      -260.3485
   7   2.0000      -9.567629      -260.3484
   8   2.0000      -9.567531      -260.3458
   9   2.0000      -9.567531      -260.3457
  10   2.0000      -9.567530      -260.3457
  11   2.0000      -9.567528      -260.3457
  12   2.0000      -9.563503      -260.2361
  13   2.0000      -9.563462      -260.2350
  14   2.0000      -9.563386      -260.2330
  15   2.0000      -1.292482       -35.1702
  16   2.0000      -1.278141       -34.7800
  17   2.0000      -1.266628       -34.4667
  18   2.0000      -0.639162       -17.3925
  19   2.0000      -0.630368       -17.1532
  20   2.0000      -0.603526       -16.4228
  21   2.0000      -0.597108       -16.2481
  22   2.0000      -0.590136       -16.0584
  23   2.0000      -0.583563       -15.8795
  24   2.0000      -0.579602       -15.7718
  25   2.0000      -0.551535       -15.0080
  26   2.0000      -0.547970       -14.9110
  27   0.0000       0.116195         3.1618
  28   0.0000       0.117668         3.2019
  29   0.0000       0.135622         3.6905
  30   0.0000       0.137754         3.7485
  31   0.0000       0.169280         4.6063

MULLIKEN ATOMIC CHARGES
-----------------------
   0 Ar:   -0.000739
   1 Ar:   -0.000739
   2 Ar:    0.001479
Sum of atomic charges:   -0.0000000

LOEWDIN ATOMIC CHARGES
----------------------
   0 Ar:    0.003663
   1 Ar:    0.003663
   2 Ar:   -0.007326

E(0)                                       ...  -1580.376546586
E(0)                                       ...  -1580.376546586
E(CORR)(strong-pairs)                      ...     -0.006939066
E(CORR)(weak-pairs)                        ...     -0.000156235
E(CORR)(corrected)                         ...     -0.007095301
E(TOT)                                     ...  -1580.383641888
FINAL SINGLE POINT ENERGY     -1580.382376896998

DIPOLE MOMENT
-------------

Method             : SCF
Type of density    : Electron Density
Multiplicity       :   1
Irrep              :   0
Energy             : -1580.3765465864130420 Eh
Relativity type    :
Basis              : AO
                                X                 Y                 Z
Electronic contribution:     -0.000000000       0.000328072       0.000000000
Nuclear contribution   :      0.000000000       0.000000000       0.000000000
                        -----------------------------------------
Total Dipole Moment    :     -0.000000000       0.000328072       0.000000000
                        -----------------------------------------
Magnitude (a.u.)       :      0.000328072
Magnitude (Debye)      :      0.000833892

Rotational constants in cm-1:             0.137605             0.065122             0.044203
Rotational constants in MHz :          4125.304306          1952.304507          1325.167584

                             ****ORCA TERMINATED NORMALLY****
TOTAL RUN TIME: 0 days 0 hours 0 minutes 12 seconds 925 msec
