                         Program Version 6.0.0  -   RELEASE  -
|  1> # MP2 scan of the potential energy curve for Ar...Ar
|  2>                 ! HFLD aug-cc-pvdz aug-cc-pvdz/C verytightscf
|  3>                 *xyz 0 1
|  4>                 Ar(1)	0    0	0.00000000000000
|  5>                 Ar(2)	4.0	0    0.00000000000000
|  6>                 Ar(3)	2.0	4.363484845854286    0.00000000000000
|  7>                 **                         ****END OF INPUT****

CARTESIAN COORDINATES (ANGSTROEM)
---------------------------------
  Ar     0.000000    0.000000    0.000000
  Ar     4.000000    0.000000    0.000000
  Ar     2.000000    4.363485    0.000000

 Total Charge           Charge          ....    0
 Multiplicity           Mult            ....    1
 Number of Electrons    NEL             ....   54
 Basis Dimension        Dim             ....   81

ORBITAL ENERGIES
----------------

  NO   OCC          E(Eh)            E(eV)
   0   2.0000    -118.610557     -3227.5574
   1   2.0000    -118.610422     -3227.5537
   2   2.0000    -118.610421     -3227.5537
   3   2.0000     -12.322740      -335.3188
   4   2.0000     -12.322578      -335.3144
   5   2.0000     -12.322572      -335.3142
   6   2.0000      -9.571321      -260.4489
   7   2.0000      -9.571319      -260.4488
   8   2.0000      -9.571318      -260.4488
   9   2.0000      -9.571165      -260.4447
  10   2.0000      -9.571165      -260.4447
  11   2.0000      -9.571164      -260.4446
  12   2.0000      -9.571163      -260.4446
  13   2.0000      -9.571161      -260.4445
  14   2.0000      -9.571161      -260.4445
  15   2.0000      -1.279139       -34.8071
  16   2.0000      -1.278821       -34.7985
  17   2.0000      -1.278317       -34.7848
  18   2.0000      -0.597116       -16.2484
  19   2.0000      -0.593683       -16.1549
  20   2.0000      -0.592756       -16.1297
  21   2.0000      -0.592572       -16.1247
  22   2.0000      -0.592153       -16.1133
  23   2.0000      -0.591439       -16.0939
  24   2.0000      -0.591167       -16.0865
  25   2.0000      -0.591082       -16.0842
  26   2.0000      -0.587242       -15.9797
  27   0.0000       0.122036         3.3208
  28   0.0000       0.125136         3.4051
  29   0.0000       0.126788         3.4501
  30   0.0000       0.131175         3.5695
  31   0.0000       0.155069         4.2197

MULLIKEN ATOMIC CHARGES
-----------------------
   0 Ar:    0.000038
   1 Ar:    0.000038
   2 Ar:   -0.000076
Sum of atomic charges:    0.0000000

LOEWDIN ATOMIC CHARGES
----------------------
   0 Ar:   -0.000056
   1 Ar:   -0.000056
   2 Ar:    0.000111

E(0)                                       ...  -1580.402823033
E(0)                                       ...  -1580.402823033
E(CORR)(strong-pairs)                      ...     -0.000509157
E(CORR)(weak-pairs)                        ...     -0.000166742
E(CORR)(corrected)                         ...     -0.000675899
E(TOT)                                     ...  -1580.403498932
FINAL SINGLE POINT ENERGY     -1580.403488403269

DIPOLE MOMENT
-------------

Method             : SCF
Type of density    : Electron Density
Multiplicity       :   1
Irrep              :   0
Energy             : -1580.4028230334263299 Eh
Relativity type    :
Basis              : AO
                                X                 Y                 Z
Electronic contribution:     -0.000000000      -0.000016332       0.000000000
Nuclear contribution   :      0.000000000       0.000000000       0.000000000
                        -----------------------------------------
Total Dipole Moment    :     -0.000000000      -0.000016332       0.000000000
                        -----------------------------------------
Magnitude (a.u.)       :      0.000016332
Magnitude (Debye)      :      0.000041512

Rotational constants in cm-1:             0.052749             0.033245             0.020393
Rotational constants in MHz :          1581.366651           996.659654           611.353087

                             ****ORCA TERMINATED NORMALLY****
TOTAL RUN TIME: 0 days 0 hours 0 minutes 10 seconds 824 msec
