                         Program Version 6.0.0  -   RELEASE  -
|  1> # MP2 scan of the potential energy curve for Ar...Ar
|  2>                 ! HFLD aug-cc-pvdz aug-cc-pvdz/C verytightscf
|  3>                 *xyz 0 1
|  4>                 Ar(1)	0    0	0.00000000000000
|  5>                 Ar(2)	3.2	0    0.00000000000000
|  6>                 Ar(3)	3.0250000000000004	3.195211260621119    0.00000000000000
|  7>                 **                         ****END OF INPUT****

CARTESIAN COORDINATES (ANGSTROEM)
---------------------------------
  Ar     0.000000    0.000000    0.000000
  Ar     3.200000    0.000000    0.000000
  Ar     3.025000    3.195211    0.000000

 Total Charge           Charge          ....    0
 Multiplicity           Mult            ....    1
 Number of Electrons    NEL             ....   54
 Basis Dimension        Dim             ....   81

ORBITAL ENERGIES
----------------

  NO   OCC          E(Eh)            E(eV)
   0   2.0000    -118.609003     -3227.5151
   1   2.0000    -118.609003     -3227.5150
   2   2.0000    -118.607280     -3227.4682
   3   2.0000     -12.321388      -335.2820
   4   2.0000     -12.321379      -335.2818
   5   2.0000     -12.319856      -335.2403
   6   2.0000      -9.569968      -260.4121
   7   2.0000      -9.569968      -260.4121
   8   2.0000      -9.569959      -260.4118
   9   2.0000      -9.569959      -260.4118
  10   2.0000      -9.569958      -260.4118
  11   2.0000      -9.569958      -260.4118
  12   2.0000      -9.568438      -260.3704
  13   2.0000      -9.568438      -260.3704
  14   2.0000      -9.568431      -260.3702
  15   2.0000      -1.283024       -34.9129
  16   2.0000      -1.278459       -34.7886
  17   2.0000      -1.273809       -34.6621
  18   2.0000      -0.613978       -16.7072
  19   2.0000      -0.612236       -16.6598
  20   2.0000      -0.596521       -16.2322
  21   2.0000      -0.592818       -16.1314
  22   2.0000      -0.591462       -16.0945
  23   2.0000      -0.590082       -16.0570
  24   2.0000      -0.586454       -15.9582
  25   2.0000      -0.571039       -15.5388
  26   2.0000      -0.570810       -15.5325
  27   0.0000       0.120253         3.2723
  28   0.0000       0.123509         3.3608
  29   0.0000       0.132952         3.6178
  30   0.0000       0.135274         3.6810
  31   0.0000       0.159107         4.3295

MULLIKEN ATOMIC CHARGES
-----------------------
   0 Ar:   -0.000845
   1 Ar:    0.001691
   2 Ar:   -0.000845
Sum of atomic charges:   -0.0000000

LOEWDIN ATOMIC CHARGES
----------------------
   0 Ar:    0.001509
   1 Ar:   -0.003018
   2 Ar:    0.001509

E(0)                                       ...  -1580.396817134
E(0)                                       ...  -1580.396817134
E(CORR)(strong-pairs)                      ...     -0.003219004
E(CORR)(weak-pairs)                        ...     -0.000152491
E(CORR)(corrected)                         ...     -0.003371495
E(TOT)                                     ...  -1580.400188628
FINAL SINGLE POINT ENERGY     -1580.399852953692

DIPOLE MOMENT
-------------

Method             : SCF
Type of density    : Electron Density
Multiplicity       :   1
Irrep              :   0
Energy             : -1580.3968171337173771 Eh
Relativity type    :
Basis              : AO
                                X                 Y                 Z
Electronic contribution:      0.000646630      -0.000612187       0.000000000
Nuclear contribution   :     -0.000000000       0.000000000       0.000000000
                        -----------------------------------------
Total Dipole Moment    :      0.000646630      -0.000612187       0.000000000
                        -----------------------------------------
Magnitude (a.u.)       :      0.000890452
Magnitude (Debye)      :      0.002263349

Rotational constants in cm-1:             0.117219             0.043594             0.031776
Rotational constants in MHz :          3514.148113          1306.914587           952.630512

                             ****ORCA TERMINATED NORMALLY****
TOTAL RUN TIME: 0 days 0 hours 0 minutes 13 seconds 650 msec
