                         Program Version 6.0.0  -   RELEASE  -
|  1> # MP2 scan of the potential energy curve for Ar...Ar
|  2>                 ! HFLD aug-cc-pvdz aug-cc-pvdz/C verytightscf
|  3>                 *xyz 0 1
|  4>                 Ar(1)	0    0	0.00000000000000
|  5>                 Ar(2)	4.8	0    0.00000000000000
|  6>                 Ar(3)	2.7500000000000004	3.434748899119119    0.00000000000000
|  7>                 **                         ****END OF INPUT****

CARTESIAN COORDINATES (ANGSTROEM)
---------------------------------
  Ar     0.000000    0.000000    0.000000
  Ar     4.800000    0.000000    0.000000
  Ar     2.750000    3.434749    0.000000

 Total Charge           Charge          ....    0
 Multiplicity           Mult            ....    1
 Number of Electrons    NEL             ....   54
 Basis Dimension        Dim             ....   81

ORBITAL ENERGIES
----------------

  NO   OCC          E(Eh)            E(eV)
   0   2.0000    -118.610533     -3227.5567
   1   2.0000    -118.610422     -3227.5537
   2   2.0000    -118.610399     -3227.5531
   3   2.0000     -12.322702      -335.3178
   4   2.0000     -12.322579      -335.3144
   5   2.0000     -12.322535      -335.3132
   6   2.0000      -9.571285      -260.4479
   7   2.0000      -9.571283      -260.4479
   8   2.0000      -9.571283      -260.4478
   9   2.0000      -9.571168      -260.4447
  10   2.0000      -9.571166      -260.4447
  11   2.0000      -9.571163      -260.4446
  12   2.0000      -9.571129      -260.4437
  13   2.0000      -9.571129      -260.4437
  14   2.0000      -9.571126      -260.4436
  15   2.0000      -1.279157       -34.8076
  16   2.0000      -1.278765       -34.7970
  17   2.0000      -1.278292       -34.7841
  18   2.0000      -0.597239       -16.2517
  19   2.0000      -0.594460       -16.1761
  20   2.0000      -0.592806       -16.1311
  21   2.0000      -0.592741       -16.1293
  22   2.0000      -0.592069       -16.1110
  23   2.0000      -0.591403       -16.0929
  24   2.0000      -0.591199       -16.0873
  25   2.0000      -0.589902       -16.0521
  26   2.0000      -0.587209       -15.9788
  27   0.0000       0.124584         3.3901
  28   0.0000       0.125013         3.4018
  29   0.0000       0.126705         3.4478
  30   0.0000       0.129425         3.5218
  31   0.0000       0.157004         4.2723

MULLIKEN ATOMIC CHARGES
-----------------------
   0 Ar:   -0.000099
   1 Ar:   -0.000018
   2 Ar:    0.000117
Sum of atomic charges:   -0.0000000

LOEWDIN ATOMIC CHARGES
----------------------
   0 Ar:    0.000144
   1 Ar:    0.000028
   2 Ar:   -0.000172

E(0)                                       ...  -1580.402808230
E(0)                                       ...  -1580.402808230
E(CORR)(strong-pairs)                      ...     -0.000643947
E(CORR)(weak-pairs)                        ...     -0.000109598
E(CORR)(corrected)                         ...     -0.000753545
E(TOT)                                     ...  -1580.403561775
FINAL SINGLE POINT ENERGY     -1580.403551928570

DIPOLE MOMENT
-------------

Method             : SCF
Type of density    : Electron Density
Multiplicity       :   1
Irrep              :   0
Energy             : -1580.4028082297390938 Eh
Relativity type    :
Basis              : AO
                                X                 Y                 Z
Electronic contribution:     -0.000008582       0.000072335       0.000000000
Nuclear contribution   :      0.000000000      -0.000000000       0.000000000
                        -----------------------------------------
Total Dipole Moment    :     -0.000008582       0.000072335       0.000000000
                        -----------------------------------------
Magnitude (a.u.)       :      0.000072843
Magnitude (Debye)      :      0.000185151

Rotational constants in cm-1:             0.054801             0.035864             0.021678
Rotational constants in MHz :          1642.901381          1075.183089           649.876706

                             ****ORCA TERMINATED NORMALLY****
TOTAL RUN TIME: 0 days 0 hours 0 minutes 9 seconds 584 msec
