                         Program Version 6.0.0  -   RELEASE  -
|  1> # MP2 scan of the potential energy curve for Ar...Ar
|  2>                 ! HFLD aug-cc-pvdz aug-cc-pvdz/C verytightscf
|  3>                 *xyz 0 1
|  4>                 Ar(1)	0    0	0.00000000000000
|  5>                 Ar(2)	3.6	0    0.00000000000000
|  6>                 Ar(3)	1.8	3.117691453623979    0.00000000000000
|  7>                 **                         ****END OF INPUT****

CARTESIAN COORDINATES (ANGSTROEM)
---------------------------------
  Ar     0.000000    0.000000    0.000000
  Ar     3.600000    0.000000    0.000000
  Ar     1.800000    3.117691    0.000000

 Total Charge           Charge          ....    0
 Multiplicity           Mult            ....    1
 Number of Electrons    NEL             ....   54
 Basis Dimension        Dim             ....   81

ORBITAL ENERGIES
----------------

  NO   OCC          E(Eh)            E(eV)
   0   2.0000    -118.609635     -3227.5323
   1   2.0000    -118.609635     -3227.5323
   2   2.0000    -118.609635     -3227.5323
   3   2.0000     -12.321846      -335.2945
   4   2.0000     -12.321846      -335.2945
   5   2.0000     -12.321836      -335.2942
   6   2.0000      -9.570444      -260.4250
   7   2.0000      -9.570444      -260.4250
   8   2.0000      -9.570443      -260.4250
   9   2.0000      -9.570442      -260.4250
  10   2.0000      -9.570440      -260.4249
  11   2.0000      -9.570440      -260.4249
  12   2.0000      -9.570436      -260.4248
  13   2.0000      -9.570436      -260.4248
  14   2.0000      -9.570435      -260.4248
  15   2.0000      -1.280806       -34.8525
  16   2.0000      -1.277330       -34.7579
  17   2.0000      -1.277330       -34.7579
  18   2.0000      -0.607731       -16.5372
  19   2.0000      -0.598535       -16.2870
  20   2.0000      -0.598535       -16.2870
  21   2.0000      -0.594749       -16.1839
  22   2.0000      -0.590249       -16.0615
  23   2.0000      -0.590249       -16.0615
  24   2.0000      -0.584556       -15.9066
  25   2.0000      -0.581128       -15.8133
  26   2.0000      -0.581128       -15.8133
  27   0.0000       0.120122         3.2687
  28   0.0000       0.120122         3.2687
  29   0.0000       0.131216         3.5706
  30   0.0000       0.135222         3.6796
  31   0.0000       0.170730         4.6458

MULLIKEN ATOMIC CHARGES
-----------------------
   0 Ar:    0.000000
   1 Ar:    0.000000
   2 Ar:   -0.000000
Sum of atomic charges:   -0.0000000

LOEWDIN ATOMIC CHARGES
----------------------
   0 Ar:    0.000000
   1 Ar:    0.000000
   2 Ar:   -0.000000

E(0)                                       ...  -1580.400917388
E(0)                                       ...  -1580.400917388
E(CORR)(strong-pairs)                      ...     -0.002273223
E(CORR)(weak-pairs)                        ...     -0.000075246
E(CORR)(corrected)                         ...     -0.002348469
E(TOT)                                     ...  -1580.403265857
FINAL SINGLE POINT ENERGY     -1580.403133141567

DIPOLE MOMENT
-------------

Method             : SCF
Type of density    : Electron Density
Multiplicity       :   1
Irrep              :   0
Energy             : -1580.4009173882191135 Eh
Relativity type    :
Basis              : AO
                                X                 Y                 Z
Electronic contribution:      0.000000000      -0.000000045       0.000000000
Nuclear contribution   :      0.000000000      -0.000000000       0.000000000
                        -----------------------------------------
Total Dipole Moment    :      0.000000000      -0.000000045       0.000000000
                        -----------------------------------------
Magnitude (a.u.)       :      0.000000045
Magnitude (Debye)      :      0.000000114

Rotational constants in cm-1:             0.065122             0.065122             0.032561
Rotational constants in MHz :          1952.304507          1952.304507           976.152254

                             ****ORCA TERMINATED NORMALLY****
TOTAL RUN TIME: 0 days 0 hours 0 minutes 10 seconds 562 msec
