                         Program Version 6.0.0  -   RELEASE  -
|  1> # MP2 scan of the potential energy curve for Ar...Ar
|  2>                 ! HFLD aug-cc-pvdz aug-cc-pvdz/C verytightscf
|  3>                 *xyz 0 1
|  4>                 Ar(1)	0    0	0.00000000000000
|  5>                 Ar(2)	4.8	0    0.00000000000000
|  6>                 Ar(3)	2.683333333333333	2.399942128931909    0.00000000000000
|  7>                 **                         ****END OF INPUT****

CARTESIAN COORDINATES (ANGSTROEM)
---------------------------------
  Ar     0.000000    0.000000    0.000000
  Ar     4.800000    0.000000    0.000000
  Ar     2.683333    2.399942    0.000000

 Total Charge           Charge          ....    0
 Multiplicity           Mult            ....    1
 Number of Electrons    NEL             ....   54
 Basis Dimension        Dim             ....   81

ORBITAL ENERGIES
----------------

  NO   OCC          E(Eh)            E(eV)
   0   2.0000    -118.610123     -3227.5455
   1   2.0000    -118.608927     -3227.5130
   2   2.0000    -118.608413     -3227.4990
   3   2.0000     -12.322327      -335.3076
   4   2.0000     -12.321319      -335.2801
   5   2.0000     -12.320799      -335.2660
   6   2.0000      -9.570915      -260.4379
   7   2.0000      -9.570914      -260.4378
   8   2.0000      -9.570909      -260.4377
   9   2.0000      -9.569901      -260.4102
  10   2.0000      -9.569892      -260.4100
  11   2.0000      -9.569891      -260.4100
  12   2.0000      -9.569397      -260.3965
  13   2.0000      -9.569389      -260.3963
  14   2.0000      -9.569383      -260.3961
  15   2.0000      -1.281865       -34.8813
  16   2.0000      -1.278659       -34.7941
  17   2.0000      -1.274958       -34.6934
  18   2.0000      -0.612864       -16.6769
  19   2.0000      -0.602750       -16.4017
  20   2.0000      -0.595416       -16.2021
  21   2.0000      -0.592336       -16.1183
  22   2.0000      -0.591887       -16.1061
  23   2.0000      -0.591057       -16.0835
  24   2.0000      -0.587699       -15.9921
  25   2.0000      -0.581219       -15.8158
  26   2.0000      -0.571192       -15.5429
  27   0.0000       0.121158         3.2969
  28   0.0000       0.127581         3.4717
  29   0.0000       0.131433         3.5765
  30   0.0000       0.133203         3.6246
  31   0.0000       0.154635         4.2078

MULLIKEN ATOMIC CHARGES
-----------------------
   0 Ar:   -0.000428
   1 Ar:   -0.000618
   2 Ar:    0.001046
Sum of atomic charges:   -0.0000000

LOEWDIN ATOMIC CHARGES
----------------------
   0 Ar:    0.000993
   1 Ar:    0.000719
   2 Ar:   -0.001712

E(0)                                       ...  -1580.399200279
E(0)                                       ...  -1580.399200279
E(CORR)(strong-pairs)                      ...     -0.002413167
E(CORR)(weak-pairs)                        ...     -0.000151086
E(CORR)(corrected)                         ...     -0.002564252
E(TOT)                                     ...  -1580.401764531
FINAL SINGLE POINT ENERGY     -1580.401536958880

DIPOLE MOMENT
-------------

Method             : SCF
Type of density    : Electron Density
Multiplicity       :   1
Irrep              :   0
Energy             : -1580.3992002785441855 Eh
Relativity type    :
Basis              : AO
                                X                 Y                 Z
Electronic contribution:     -0.000391516       0.000685171      -0.000000000
Nuclear contribution   :      0.000000000      -0.000000000       0.000000000
                        -----------------------------------------
Total Dipole Moment    :     -0.000391516       0.000685171      -0.000000000
                        -----------------------------------------
Magnitude (a.u.)       :      0.000789142
Magnitude (Debye)      :      0.002005839

Rotational constants in cm-1:             0.110662             0.036378             0.027378
Rotational constants in MHz :          3317.552414          1090.597690           820.778538

                             ****ORCA TERMINATED NORMALLY****
TOTAL RUN TIME: 0 days 0 hours 0 minutes 12 seconds 992 msec
