                         Program Version 6.0.0  -   RELEASE  -
|  1> # MP2 scan of the potential energy curve for Ar...Ar
|  2>                 ! HFLD aug-cc-pvdz aug-cc-pvdz/C verytightscf
|  3>                 *xyz 0 1
|  4>                 Ar(1)	0    0	0.00000000000000
|  5>                 Ar(2)	3.6	0    0.00000000000000
|  6>                 Ar(3)	0.6666666666666667	2.719477073916152    0.00000000000000
|  7>                 **                         ****END OF INPUT****

CARTESIAN COORDINATES (ANGSTROEM)
---------------------------------
  Ar     0.000000    0.000000    0.000000
  Ar     3.600000    0.000000    0.000000
  Ar     0.666667    2.719477    0.000000

 Total Charge           Charge          ....    0
 Multiplicity           Mult            ....    1
 Number of Electrons    NEL             ....   54
 Basis Dimension        Dim             ....   81

ORBITAL ENERGIES
----------------

  NO   OCC          E(Eh)            E(eV)
   0   2.0000    -118.610362     -3227.5520
   1   2.0000    -118.605665     -3227.4242
   2   2.0000    -118.605235     -3227.4125
   3   2.0000     -12.322547      -335.3136
   4   2.0000     -12.318728      -335.2096
   5   2.0000     -12.318327      -335.1987
   6   2.0000      -9.571141      -260.4440
   7   2.0000      -9.571140      -260.4439
   8   2.0000      -9.571137      -260.4439
   9   2.0000      -9.567321      -260.3400
  10   2.0000      -9.567224      -260.3374
  11   2.0000      -9.567222      -260.3373
  12   2.0000      -9.566926      -260.3293
  13   2.0000      -9.566829      -260.3267
  14   2.0000      -9.566824      -260.3265
  15   2.0000      -1.287918       -35.0460
  16   2.0000      -1.278862       -34.7996
  17   2.0000      -1.269557       -34.5464
  18   2.0000      -0.633653       -17.2426
  19   2.0000      -0.605982       -16.4896
  20   2.0000      -0.599716       -16.3191
  21   2.0000      -0.593573       -16.1519
  22   2.0000      -0.592000       -16.1091
  23   2.0000      -0.587672       -15.9914
  24   2.0000      -0.582599       -15.8533
  25   2.0000      -0.579604       -15.7718
  26   2.0000      -0.550061       -14.9679
  27   0.0000       0.115491         3.1427
  28   0.0000       0.124294         3.3822
  29   0.0000       0.133486         3.6323
  30   0.0000       0.135183         3.6785
  31   0.0000       0.164604         4.4791

MULLIKEN ATOMIC CHARGES
-----------------------
   0 Ar:    0.001302
   1 Ar:   -0.000541
   2 Ar:   -0.000762
Sum of atomic charges:   -0.0000000

LOEWDIN ATOMIC CHARGES
----------------------
   0 Ar:   -0.002419
   1 Ar:    0.002449
   2 Ar:   -0.000030

E(0)                                       ...  -1580.389161515
E(0)                                       ...  -1580.389161515
E(CORR)(strong-pairs)                      ...     -0.004261975
E(CORR)(weak-pairs)                        ...     -0.000101271
E(CORR)(corrected)                         ...     -0.004363246
E(TOT)                                     ...  -1580.393524761
FINAL SINGLE POINT ENERGY     -1580.392834557536

DIPOLE MOMENT
-------------

Method             : SCF
Type of density    : Electron Density
Multiplicity       :   1
Irrep              :   0
Energy             : -1580.3891615154539068 Eh
Relativity type    :
Basis              : AO
                                X                 Y                 Z
Electronic contribution:      0.001136652      -0.001121282      -0.000000000
Nuclear contribution   :      0.000000000       0.000000000       0.000000000
                        -----------------------------------------
Total Dipole Moment    :      0.001136652      -0.001121282      -0.000000000
                        -----------------------------------------
Magnitude (a.u.)       :      0.001596637
Magnitude (Debye)      :      0.004058330

Rotational constants in cm-1:             0.112459             0.049562             0.034401
Rotational constants in MHz :          3371.449805          1485.846264          1031.326077

                             ****ORCA TERMINATED NORMALLY****
TOTAL RUN TIME: 0 days 0 hours 0 minutes 13 seconds 125 msec
