                         Program Version 6.0.0  -   RELEASE  -
|  1> # MP2 scan of the potential energy curve for Ar...Ar
|  2>                 ! HFLD aug-cc-pvdz aug-cc-pvdz/C verytightscf
|  3>                 *xyz 0 1
|  4>                 Ar(1)	0    0	0.00000000000000
|  5>                 Ar(2)	4.0	0    0.00000000000000
|  6>                 Ar(3)	2.0	3.9191835884530852    0.00000000000000
|  7>                 **                         ****END OF INPUT****

CARTESIAN COORDINATES (ANGSTROEM)
---------------------------------
  Ar     0.000000    0.000000    0.000000
  Ar     4.000000    0.000000    0.000000
  Ar     2.000000    3.919184    0.000000

 Total Charge           Charge          ....    0
 Multiplicity           Mult            ....    1
 Number of Electrons    NEL             ....   54
 Basis Dimension        Dim             ....   81

ORBITAL ENERGIES
----------------

  NO   OCC          E(Eh)            E(eV)
   0   2.0000    -118.610510     -3227.5561
   1   2.0000    -118.610401     -3227.5531
   2   2.0000    -118.610400     -3227.5531
   3   2.0000     -12.322664      -335.3167
   4   2.0000     -12.322543      -335.3134
   5   2.0000     -12.322537      -335.3133
   6   2.0000      -9.571250      -260.4470
   7   2.0000      -9.571250      -260.4469
   8   2.0000      -9.571249      -260.4469
   9   2.0000      -9.571132      -260.4438
  10   2.0000      -9.571132      -260.4438
  11   2.0000      -9.571132      -260.4437
  12   2.0000      -9.571132      -260.4437
  13   2.0000      -9.571129      -260.4437
  14   2.0000      -9.571129      -260.4437
  15   2.0000      -1.279185       -34.8084
  16   2.0000      -1.278680       -34.7946
  17   2.0000      -1.278287       -34.7840
  18   2.0000      -0.597528       -16.2596
  19   2.0000      -0.594609       -16.1801
  20   2.0000      -0.593331       -16.1454
  21   2.0000      -0.592871       -16.1328
  22   2.0000      -0.591935       -16.1074
  23   2.0000      -0.591406       -16.0930
  24   2.0000      -0.590269       -16.0620
  25   2.0000      -0.589720       -16.0471
  26   2.0000      -0.587186       -15.9781
  27   0.0000       0.124192         3.3794
  28   0.0000       0.126629         3.4458
  29   0.0000       0.127047         3.4571
  30   0.0000       0.127903         3.4804
  31   0.0000       0.160689         4.3726

MULLIKEN ATOMIC CHARGES
-----------------------
   0 Ar:    0.000056
   1 Ar:    0.000056
   2 Ar:   -0.000112
Sum of atomic charges:    0.0000000

LOEWDIN ATOMIC CHARGES
----------------------
   0 Ar:   -0.000073
   1 Ar:   -0.000073
   2 Ar:    0.000147

E(0)                                       ...  -1580.402793502
E(0)                                       ...  -1580.402793502
E(CORR)(strong-pairs)                      ...     -0.000692032
E(CORR)(weak-pairs)                        ...     -0.000143347
E(CORR)(corrected)                         ...     -0.000835379
E(TOT)                                     ...  -1580.403628882
FINAL SINGLE POINT ENERGY     -1580.403617386861

DIPOLE MOMENT
-------------

Method             : SCF
Type of density    : Electron Density
Multiplicity       :   1
Irrep              :   0
Energy             : -1580.4027935024305407 Eh
Relativity type    :
Basis              : AO
                                X                 Y                 Z
Electronic contribution:     -0.000000000      -0.000021216      -0.000000000
Nuclear contribution   :      0.000000000      -0.000000000       0.000000000
                        -----------------------------------------
Total Dipole Moment    :     -0.000000000      -0.000021216      -0.000000000
                        -----------------------------------------
Magnitude (a.u.)       :      0.000021216
Magnitude (Debye)      :      0.000053927

Rotational constants in cm-1:             0.052749             0.041210             0.023135
Rotational constants in MHz :          1581.366651          1235.442696           693.581864

                             ****ORCA TERMINATED NORMALLY****
TOTAL RUN TIME: 0 days 0 hours 0 minutes 9 seconds 429 msec
