                         Program Version 6.0.0  -   RELEASE  -
|  1> # MP2 scan of the potential energy curve for Ar...Ar
|  2>                 ! HFLD aug-cc-pvdz aug-cc-pvdz/C verytightscf
|  3>                 *xyz 0 1
|  4>                 Ar(1)	0    0	0.00000000000000
|  5>                 Ar(2)	4.8	0    0.00000000000000
|  6>                 Ar(3)	2.9333333333333336	2.0869967789998034    0.00000000000000
|  7>                 **                         ****END OF INPUT****

CARTESIAN COORDINATES (ANGSTROEM)
---------------------------------
  Ar     0.000000    0.000000    0.000000
  Ar     4.800000    0.000000    0.000000
  Ar     2.933333    2.086997    0.000000

 Total Charge           Charge          ....    0
 Multiplicity           Mult            ....    1
 Number of Electrons    NEL             ....   54
 Basis Dimension        Dim             ....   81

ORBITAL ENERGIES
----------------

  NO   OCC          E(Eh)            E(eV)
   0   2.0000    -118.610198     -3227.5476
   1   2.0000    -118.605719     -3227.4257
   2   2.0000    -118.605215     -3227.4120
   3   2.0000     -12.322405      -335.3097
   4   2.0000     -12.318810      -335.2119
   5   2.0000     -12.318306      -335.1982
   6   2.0000      -9.570993      -260.4400
   7   2.0000      -9.570991      -260.4399
   8   2.0000      -9.570986      -260.4398
   9   2.0000      -9.567394      -260.3420
  10   2.0000      -9.567297      -260.3394
  11   2.0000      -9.567296      -260.3393
  12   2.0000      -9.566906      -260.3287
  13   2.0000      -9.566810      -260.3261
  14   2.0000      -9.566804      -260.3260
  15   2.0000      -1.287871       -35.0447
  16   2.0000      -1.278778       -34.7973
  17   2.0000      -1.269541       -34.5460
  18   2.0000      -0.633480       -17.2379
  19   2.0000      -0.604829       -16.4582
  20   2.0000      -0.599605       -16.3161
  21   2.0000      -0.592243       -16.1158
  22   2.0000      -0.592039       -16.1102
  23   2.0000      -0.591075       -16.0840
  24   2.0000      -0.582557       -15.8522
  25   2.0000      -0.578537       -15.7428
  26   2.0000      -0.550037       -14.9673
  27   0.0000       0.119178         3.2430
  28   0.0000       0.128889         3.5072
  29   0.0000       0.133289         3.6270
  30   0.0000       0.134434         3.6581
  31   0.0000       0.152830         4.1587

MULLIKEN ATOMIC CHARGES
-----------------------
   0 Ar:   -0.000432
   1 Ar:   -0.001024
   2 Ar:    0.001455
Sum of atomic charges:   -0.0000000

LOEWDIN ATOMIC CHARGES
----------------------
   0 Ar:    0.001466
   1 Ar:    0.000910
   2 Ar:   -0.002376

E(0)                                       ...  -1580.389251834
E(0)                                       ...  -1580.389251834
E(CORR)(strong-pairs)                      ...     -0.004163511
E(CORR)(weak-pairs)                        ...     -0.000183262
E(CORR)(corrected)                         ...     -0.004346772
E(TOT)                                     ...  -1580.393598606
FINAL SINGLE POINT ENERGY     -1580.392868074228

DIPOLE MOMENT
-------------

Method             : SCF
Type of density    : Electron Density
Multiplicity       :   1
Irrep              :   0
Energy             : -1580.3892518335223940 Eh
Relativity type    :
Basis              : AO
                                X                 Y                 Z
Electronic contribution:     -0.000921777       0.001253089      -0.000000000
Nuclear contribution   :     -0.000000000       0.000000000       0.000000000
                        -----------------------------------------
Total Dipole Moment    :     -0.000921777       0.001253089      -0.000000000
                        -----------------------------------------
Magnitude (a.u.)       :      0.001555604
Magnitude (Debye)      :      0.003954032

Rotational constants in cm-1:             0.148504             0.035848             0.028877
Rotational constants in MHz :          4452.026588          1074.688493           865.711670

                             ****ORCA TERMINATED NORMALLY****
TOTAL RUN TIME: 0 days 0 hours 0 minutes 9 seconds 822 msec
