                         Program Version 6.0.0  -   RELEASE  -
|  1> # MP2 scan of the potential energy curve for Ar...Ar
|  2>                 ! HFLD aug-cc-pvdz aug-cc-pvdz/C verytightscf
|  3>                 *xyz 0 1
|  4>                 Ar(1)	0    0	0.00000000000000
|  5>                 Ar(2)	3.2	0    0.00000000000000
|  6>                 Ar(3)	1.6000000000000003	3.22490309931942    0.00000000000000
|  7>                 **                         ****END OF INPUT****

CARTESIAN COORDINATES (ANGSTROEM)
---------------------------------
  Ar     0.000000    0.000000    0.000000
  Ar     3.200000    0.000000    0.000000
  Ar     1.600000    3.224903    0.000000

 Total Charge           Charge          ....    0
 Multiplicity           Mult            ....    1
 Number of Electrons    NEL             ....   54
 Basis Dimension        Dim             ....   81

ORBITAL ENERGIES
----------------

  NO   OCC          E(Eh)            E(eV)
   0   2.0000    -118.609792     -3227.5365
   1   2.0000    -118.608513     -3227.5017
   2   2.0000    -118.608512     -3227.5017
   3   2.0000     -12.322006      -335.2988
   4   2.0000     -12.320913      -335.2691
   5   2.0000     -12.320901      -335.2688
   6   2.0000      -9.570604      -260.4294
   7   2.0000      -9.570602      -260.4293
   8   2.0000      -9.570598      -260.4292
   9   2.0000      -9.569503      -260.3994
  10   2.0000      -9.569500      -260.3993
  11   2.0000      -9.569494      -260.3992
  12   2.0000      -9.569493      -260.3991
  13   2.0000      -9.569489      -260.3990
  14   2.0000      -9.569488      -260.3990
  15   2.0000      -1.282344       -34.8944
  16   2.0000      -1.277918       -34.7739
  17   2.0000      -1.275105       -34.6974
  18   2.0000      -0.614967       -16.7341
  19   2.0000      -0.603239       -16.4150
  20   2.0000      -0.597009       -16.2455
  21   2.0000      -0.596060       -16.2196
  22   2.0000      -0.590824       -16.0771
  23   2.0000      -0.587895       -15.9974
  24   2.0000      -0.583223       -15.8703
  25   2.0000      -0.581746       -15.8301
  26   2.0000      -0.571142       -15.5416
  27   0.0000       0.117434         3.1955
  28   0.0000       0.120833         3.2880
  29   0.0000       0.132811         3.6140
  30   0.0000       0.135586         3.6895
  31   0.0000       0.169724         4.6184

MULLIKEN ATOMIC CHARGES
-----------------------
   0 Ar:    0.000110
   1 Ar:    0.000110
   2 Ar:   -0.000221
Sum of atomic charges:   -0.0000000

LOEWDIN ATOMIC CHARGES
----------------------
   0 Ar:   -0.000596
   1 Ar:   -0.000596
   2 Ar:    0.001192

E(0)                                       ...  -1580.398562298
E(0)                                       ...  -1580.398562298
E(CORR)(strong-pairs)                      ...     -0.003034795
E(CORR)(weak-pairs)                        ...     -0.000099319
E(CORR)(corrected)                         ...     -0.003134114
E(TOT)                                     ...  -1580.401696412
FINAL SINGLE POINT ENERGY     -1580.401441226413

DIPOLE MOMENT
-------------

Method             : SCF
Type of density    : Electron Density
Multiplicity       :   1
Irrep              :   0
Energy             : -1580.3985622981367669 Eh
Relativity type    :
Basis              : AO
                                X                 Y                 Z
Electronic contribution:     -0.000000000       0.000609173      -0.000000000
Nuclear contribution   :      0.000000000      -0.000000000       0.000000000
                        -----------------------------------------
Total Dipole Moment    :     -0.000000000       0.000609173      -0.000000000
                        -----------------------------------------
Magnitude (a.u.)       :      0.000609173
Magnitude (Debye)      :      0.001548394

Rotational constants in cm-1:             0.082420             0.060864             0.035010
Rotational constants in MHz :          2470.885392          1824.653828          1049.579635

                             ****ORCA TERMINATED NORMALLY****
TOTAL RUN TIME: 0 days 0 hours 0 minutes 15 seconds 227 msec
