                         Program Version 6.0.0  -   RELEASE  -
|  1> # MP2 scan of the potential energy curve for Ar...Ar
|  2>                 ! HFLD aug-cc-pvdz aug-cc-pvdz/C verytightscf
|  3>                 *xyz 0 1
|  4>                 Ar(1)	0    0	0.00000000000000
|  5>                 Ar(2)	3.2	0    0.00000000000000
|  6>                 Ar(3)	1.6000000000000003	2.771281292110204    0.00000000000000
|  7>                 **                         ****END OF INPUT****

CARTESIAN COORDINATES (ANGSTROEM)
---------------------------------
  Ar     0.000000    0.000000    0.000000
  Ar     3.200000    0.000000    0.000000
  Ar     1.600000    2.771281    0.000000

 Total Charge           Charge          ....    0
 Multiplicity           Mult            ....    1
 Number of Electrons    NEL             ....   54
 Basis Dimension        Dim             ....   81

ORBITAL ENERGIES
----------------

  NO   OCC          E(Eh)            E(eV)
   0   2.0000    -118.607642     -3227.4780
   1   2.0000    -118.607642     -3227.4780
   2   2.0000    -118.607642     -3227.4780
   3   2.0000     -12.320228      -335.2504
   4   2.0000     -12.320228      -335.2504
   5   2.0000     -12.320210      -335.2500
   6   2.0000      -9.568810      -260.3806
   7   2.0000      -9.568810      -260.3806
   8   2.0000      -9.568807      -260.3805
   9   2.0000      -9.568796      -260.3802
  10   2.0000      -9.568793      -260.3801
  11   2.0000      -9.568793      -260.3801
  12   2.0000      -9.568792      -260.3801
  13   2.0000      -9.568792      -260.3801
  14   2.0000      -9.568790      -260.3800
  15   2.0000      -1.284982       -34.9661
  16   2.0000      -1.275180       -34.6994
  17   2.0000      -1.275180       -34.6994
  18   2.0000      -0.623942       -16.9783
  19   2.0000      -0.605558       -16.4781
  20   2.0000      -0.605558       -16.4781
  21   2.0000      -0.598419       -16.2838
  22   2.0000      -0.587794       -15.9947
  23   2.0000      -0.587794       -15.9947
  24   2.0000      -0.576066       -15.6756
  25   2.0000      -0.569983       -15.5100
  26   2.0000      -0.569983       -15.5100
  27   0.0000       0.116801         3.1783
  28   0.0000       0.116801         3.1783
  29   0.0000       0.135809         3.6955
  30   0.0000       0.135891         3.6978
  31   0.0000       0.173311         4.7160

MULLIKEN ATOMIC CHARGES
-----------------------
   0 Ar:    0.000000
   1 Ar:    0.000000
   2 Ar:   -0.000000
Sum of atomic charges:   -0.0000000

LOEWDIN ATOMIC CHARGES
----------------------
   0 Ar:    0.000000
   1 Ar:    0.000000
   2 Ar:   -0.000000

E(0)                                       ...  -1580.393955509
E(0)                                       ...  -1580.393955509
E(CORR)(strong-pairs)                      ...     -0.004555288
E(CORR)(weak-pairs)                        ...     -0.000128030
E(CORR)(corrected)                         ...     -0.004683319
E(TOT)                                     ...  -1580.398638828
FINAL SINGLE POINT ENERGY     -1580.398151846208

DIPOLE MOMENT
-------------

Method             : SCF
Type of density    : Electron Density
Multiplicity       :   1
Irrep              :   0
Energy             : -1580.3939555092904357 Eh
Relativity type    :
Basis              : AO
                                X                 Y                 Z
Electronic contribution:     -0.000000000      -0.000000032       0.000000000
Nuclear contribution   :      0.000000000      -0.000000000       0.000000000
                        -----------------------------------------
Total Dipole Moment    :      0.000000000      -0.000000032       0.000000000
                        -----------------------------------------
Magnitude (a.u.)       :      0.000000032
Magnitude (Debye)      :      0.000000081

Rotational constants in cm-1:             0.082420             0.082420             0.041210
Rotational constants in MHz :          2470.885392          2470.885392          1235.442696

                             ****ORCA TERMINATED NORMALLY****
TOTAL RUN TIME: 0 days 0 hours 0 minutes 14 seconds 963 msec
