                         Program Version 6.0.0  -   RELEASE  -
|  1> # MP2 scan of the potential energy curve for Ar...Ar
|  2>                 ! HFLD aug-cc-pvdz aug-cc-pvdz/C verytightscf
|  3>                 *xyz 0 1
|  4>                 Ar(1)	0    0	0.00000000000000
|  5>                 Ar(2)	4.4	0    0.00000000000000
|  6>                 Ar(3)	2.472727272727273	2.0311621881845734    0.00000000000000
|  7>                 **                         ****END OF INPUT****

CARTESIAN COORDINATES (ANGSTROEM)
---------------------------------
  Ar     0.000000    0.000000    0.000000
  Ar     4.400000    0.000000    0.000000
  Ar     2.472727    2.031162    0.000000

 Total Charge           Charge          ....    0
 Multiplicity           Mult            ....    1
 Number of Electrons    NEL             ....   54
 Basis Dimension        Dim             ....   81

ORBITAL ENERGIES
----------------

  NO   OCC          E(Eh)            E(eV)
   0   2.0000    -118.609115     -3227.5181
   1   2.0000    -118.605775     -3227.4272
   2   2.0000    -118.604079     -3227.3811
   3   2.0000     -12.321499      -335.2850
   4   2.0000     -12.318854      -335.2130
   5   2.0000     -12.317360      -335.1724
   6   2.0000      -9.570084      -260.4152
   7   2.0000      -9.570073      -260.4149
   8   2.0000      -9.570073      -260.4149
   9   2.0000      -9.567441      -260.3433
  10   2.0000      -9.567343      -260.3407
  11   2.0000      -9.567342      -260.3406
  12   2.0000      -9.565944      -260.3026
  13   2.0000      -9.565856      -260.3002
  14   2.0000      -9.565848      -260.3000
  15   2.0000      -1.288332       -35.0573
  16   2.0000      -1.278661       -34.7941
  17   2.0000      -1.269014       -34.5316
  18   2.0000      -0.633527       -17.2391
  19   2.0000      -0.614315       -16.7164
  20   2.0000      -0.600156       -16.3311
  21   2.0000      -0.592515       -16.1231
  22   2.0000      -0.591583       -16.0978
  23   2.0000      -0.590052       -16.0561
  24   2.0000      -0.581905       -15.8344
  25   2.0000      -0.569594       -15.4994
  26   2.0000      -0.549756       -14.9596
  27   0.0000       0.119371         3.2482
  28   0.0000       0.124032         3.3751
  29   0.0000       0.134783         3.6676
  30   0.0000       0.136085         3.7031
  31   0.0000       0.157168         4.2768

MULLIKEN ATOMIC CHARGES
-----------------------
   0 Ar:   -0.000895
   1 Ar:   -0.001478
   2 Ar:    0.002374
Sum of atomic charges:   -0.0000000

LOEWDIN ATOMIC CHARGES
----------------------
   0 Ar:    0.002603
   1 Ar:    0.001862
   2 Ar:   -0.004465

E(0)                                       ...  -1580.386873349
E(0)                                       ...  -1580.386873349
E(CORR)(strong-pairs)                      ...     -0.004808490
E(CORR)(weak-pairs)                        ...     -0.000173160
E(CORR)(corrected)                         ...     -0.004981649
E(TOT)                                     ...  -1580.391854998
FINAL SINGLE POINT ENERGY     -1580.391059367510

DIPOLE MOMENT
-------------

Method             : SCF
Type of density    : Electron Density
Multiplicity       :   1
Irrep              :   0
Energy             : -1580.3868733489568967 Eh
Relativity type    :
Basis              : AO
                                X                 Y                 Z
Electronic contribution:     -0.000796313       0.001771629      -0.000000000
Nuclear contribution   :     -0.000000000       0.000000000       0.000000000
                        -----------------------------------------
Total Dipole Moment    :     -0.000796313       0.001771629      -0.000000000
                        -----------------------------------------
Magnitude (a.u.)       :      0.001942365
Magnitude (Debye)      :      0.004937100

Rotational constants in cm-1:             0.154523             0.043285             0.033813
Rotational constants in MHz :          4632.470079          1297.654861          1013.696571

                             ****ORCA TERMINATED NORMALLY****
TOTAL RUN TIME: 0 days 0 hours 0 minutes 10 seconds 587 msec
