                         Program Version 6.0.0  -   RELEASE  -
|  1> # MP2 scan of the potential energy curve for Ar...Ar
|  2>                 ! HFLD aug-cc-pvdz aug-cc-pvdz/C verytightscf
|  3>                 *xyz 0 1
|  4>                 Ar(1)	0    0	0.00000000000000
|  5>                 Ar(2)	3.2	0    0.00000000000000
|  6>                 Ar(3)	0.7000000000000006	3.1224989991991996    0.00000000000000
|  7>                 **                         ****END OF INPUT****

CARTESIAN COORDINATES (ANGSTROEM)
---------------------------------
  Ar     0.000000    0.000000    0.000000
  Ar     3.200000    0.000000    0.000000
  Ar     0.700000    3.122499    0.000000

 Total Charge           Charge          ....    0
 Multiplicity           Mult            ....    1
 Number of Electrons    NEL             ....   54
 Basis Dimension        Dim             ....   81

ORBITAL ENERGIES
----------------

  NO   OCC          E(Eh)            E(eV)
   0   2.0000    -118.608990     -3227.5147
   1   2.0000    -118.608990     -3227.5147
   2   2.0000    -118.607301     -3227.4687
   3   2.0000     -12.321361      -335.2813
   4   2.0000     -12.321353      -335.2811
   5   2.0000     -12.319878      -335.2409
   6   2.0000      -9.569947      -260.4115
   7   2.0000      -9.569947      -260.4115
   8   2.0000      -9.569938      -260.4112
   9   2.0000      -9.569937      -260.4112
  10   2.0000      -9.569936      -260.4112
  11   2.0000      -9.569936      -260.4112
  12   2.0000      -9.568462      -260.3711
  13   2.0000      -9.568458      -260.3710
  14   2.0000      -9.568452      -260.3708
  15   2.0000      -1.283190       -34.9174
  16   2.0000      -1.278194       -34.7814
  17   2.0000      -1.273943       -34.6658
  18   2.0000      -0.616211       -16.7679
  19   2.0000      -0.610261       -16.6060
  20   2.0000      -0.596735       -16.2380
  21   2.0000      -0.594465       -16.1762
  22   2.0000      -0.591087       -16.0843
  23   2.0000      -0.587818       -15.9953
  24   2.0000      -0.586628       -15.9630
  25   2.0000      -0.572414       -15.5762
  26   2.0000      -0.569899       -15.5077
  27   0.0000       0.118160         3.2153
  28   0.0000       0.121440         3.3045
  29   0.0000       0.133340         3.6284
  30   0.0000       0.135625         3.6905
  31   0.0000       0.165636         4.5072

MULLIKEN ATOMIC CHARGES
-----------------------
   0 Ar:    0.001365
   1 Ar:   -0.000683
   2 Ar:   -0.000683
Sum of atomic charges:    0.0000000

LOEWDIN ATOMIC CHARGES
----------------------
   0 Ar:   -0.002855
   1 Ar:    0.001428
   2 Ar:    0.001428

E(0)                                       ...  -1580.396731942
E(0)                                       ...  -1580.396731942
E(CORR)(strong-pairs)                      ...     -0.003450279
E(CORR)(weak-pairs)                        ...     -0.000099027
E(CORR)(corrected)                         ...     -0.003549306
E(TOT)                                     ...  -1580.400281248
FINAL SINGLE POINT ENERGY     -1580.399950718656

DIPOLE MOMENT
-------------

Method             : SCF
Type of density    : Electron Density
Multiplicity       :   1
Irrep              :   0
Energy             : -1580.3967319420505646 Eh
Relativity type    :
Basis              : AO
                                X                 Y                 Z
Electronic contribution:     -0.000163280      -0.000130770      -0.000000000
Nuclear contribution   :     -0.000000000      -0.000000000       0.000000000
                        -----------------------------------------
Total Dipole Moment    :     -0.000163280      -0.000130770      -0.000000000
                        -----------------------------------------
Magnitude (a.u.)       :      0.000209192
Magnitude (Debye)      :      0.000531724

Rotational constants in cm-1:             0.101440             0.052749             0.034703
Rotational constants in MHz :          3041.089713          1581.366651          1040.372796

                             ****ORCA TERMINATED NORMALLY****
TOTAL RUN TIME: 0 days 0 hours 0 minutes 11 seconds 260 msec
