                         Program Version 6.0.0  -   RELEASE  -
|  1> # MP2 scan of the potential energy curve for Ar...Ar
|  2>                 ! HFLD aug-cc-pvdz aug-cc-pvdz/C verytightscf
|  3>                 *xyz 0 1
|  4>                 Ar(1)	0    0	0.00000000000000
|  5>                 Ar(2)	3.6	0    0.00000000000000
|  6>                 Ar(3)	3.066666666666667	3.155242550986462    0.00000000000000
|  7>                 **                         ****END OF INPUT****

CARTESIAN COORDINATES (ANGSTROEM)
---------------------------------
  Ar     0.000000    0.000000    0.000000
  Ar     3.600000    0.000000    0.000000
  Ar     3.066667    3.155243    0.000000

 Total Charge           Charge          ....    0
 Multiplicity           Mult            ....    1
 Number of Electrons    NEL             ....   54
 Basis Dimension        Dim             ....   81

ORBITAL ENERGIES
----------------

  NO   OCC          E(Eh)            E(eV)
   0   2.0000    -118.610155     -3227.5464
   1   2.0000    -118.608929     -3227.5131
   2   2.0000    -118.608418     -3227.4991
   3   2.0000     -12.322346      -335.3081
   4   2.0000     -12.321305      -335.2798
   5   2.0000     -12.320804      -335.2661
   6   2.0000      -9.570937      -260.4384
   7   2.0000      -9.570936      -260.4384
   8   2.0000      -9.570932      -260.4383
   9   2.0000      -9.569891      -260.4100
  10   2.0000      -9.569882      -260.4097
  11   2.0000      -9.569882      -260.4097
  12   2.0000      -9.569401      -260.3967
  13   2.0000      -9.569394      -260.3964
  14   2.0000      -9.569387      -260.3963
  15   2.0000      -1.281899       -34.8822
  16   2.0000      -1.278617       -34.7929
  17   2.0000      -1.274980       -34.6940
  18   2.0000      -0.613083       -16.6828
  19   2.0000      -0.602732       -16.4012
  20   2.0000      -0.595482       -16.2039
  21   2.0000      -0.592986       -16.1360
  22   2.0000      -0.591784       -16.1033
  23   2.0000      -0.589970       -16.0539
  24   2.0000      -0.587742       -15.9933
  25   2.0000      -0.581491       -15.8232
  26   2.0000      -0.571199       -15.5431
  27   0.0000       0.119269         3.2455
  28   0.0000       0.125416         3.4128
  29   0.0000       0.131267         3.5720
  30   0.0000       0.134100         3.6490
  31   0.0000       0.160281         4.3615

MULLIKEN ATOMIC CHARGES
-----------------------
   0 Ar:   -0.000510
   1 Ar:    0.001209
   2 Ar:   -0.000699
Sum of atomic charges:   -0.0000000

LOEWDIN ATOMIC CHARGES
----------------------
   0 Ar:    0.001178
   1 Ar:   -0.001785
   2 Ar:    0.000607

E(0)                                       ...  -1580.399192079
E(0)                                       ...  -1580.399192079
E(CORR)(strong-pairs)                      ...     -0.002431767
E(CORR)(weak-pairs)                        ...     -0.000147078
E(CORR)(corrected)                         ...     -0.002578845
E(TOT)                                     ...  -1580.401770924
FINAL SINGLE POINT ENERGY     -1580.401552877158

DIPOLE MOMENT
-------------

Method             : SCF
Type of density    : Electron Density
Multiplicity       :   1
Irrep              :   0
Energy             : -1580.3991920786152150 Eh
Relativity type    :
Basis              : AO
                                X                 Y                 Z
Electronic contribution:     -0.000033920      -0.000669412       0.000000000
Nuclear contribution   :      0.000000000      -0.000000000       0.000000000
                        -----------------------------------------
Total Dipole Moment    :     -0.000033920      -0.000669412       0.000000000
                        -----------------------------------------
Magnitude (a.u.)       :      0.000670271
Magnitude (Debye)      :      0.001703692

Rotational constants in cm-1:             0.096123             0.043075             0.029746
Rotational constants in MHz :          2881.684656          1291.366228           891.748111

                             ****ORCA TERMINATED NORMALLY****
TOTAL RUN TIME: 0 days 0 hours 0 minutes 11 seconds 876 msec
