                         Program Version 6.0.0  -   RELEASE  -
|  1> # MP2 scan of the potential energy curve for Ar...Ar
|  2>                 ! HFLD aug-cc-pvdz aug-cc-pvdz/C verytightscf
|  3>                 *xyz 0 1
|  4>                 Ar(1)	0    0	0.00000000000000
|  5>                 Ar(2)	3.6	0    0.00000000000000
|  6>                 Ar(3)	3.1999999999999997	3.5777087639996634    0.00000000000000
|  7>                 **                         ****END OF INPUT****

CARTESIAN COORDINATES (ANGSTROEM)
---------------------------------
  Ar     0.000000    0.000000    0.000000
  Ar     3.600000    0.000000    0.000000
  Ar     3.200000    3.577709    0.000000

 Total Charge           Charge          ....    0
 Multiplicity           Mult            ....    1
 Number of Electrons    NEL             ....   54
 Basis Dimension        Dim             ....   81

ORBITAL ENERGIES
----------------

  NO   OCC          E(Eh)            E(eV)
   0   2.0000    -118.610074     -3227.5442
   1   2.0000    -118.610073     -3227.5442
   2   2.0000    -118.609549     -3227.5299
   3   2.0000     -12.322279      -335.3063
   4   2.0000     -12.322271      -335.3060
   5   2.0000     -12.321744      -335.2917
   6   2.0000      -9.570864      -260.4364
   7   2.0000      -9.570864      -260.4364
   8   2.0000      -9.570863      -260.4364
   9   2.0000      -9.570862      -260.4364
  10   2.0000      -9.570858      -260.4363
  11   2.0000      -9.570858      -260.4363
  12   2.0000      -9.570349      -260.4224
  13   2.0000      -9.570344      -260.4223
  14   2.0000      -9.570342      -260.4223
  15   2.0000      -1.280187       -34.8357
  16   2.0000      -1.278610       -34.7927
  17   2.0000      -1.276903       -34.7463
  18   2.0000      -0.603073       -16.4105
  19   2.0000      -0.601565       -16.3694
  20   2.0000      -0.593997       -16.1635
  21   2.0000      -0.592510       -16.1230
  22   2.0000      -0.591857       -16.1053
  23   2.0000      -0.591187       -16.0870
  24   2.0000      -0.589732       -16.0474
  25   2.0000      -0.582120       -15.8403
  26   2.0000      -0.581484       -15.8230
  27   0.0000       0.122299         3.3279
  28   0.0000       0.127385         3.4663
  29   0.0000       0.129721         3.5299
  30   0.0000       0.131590         3.5807
  31   0.0000       0.155961         4.2439

MULLIKEN ATOMIC CHARGES
-----------------------
   0 Ar:   -0.000392
   1 Ar:    0.000785
   2 Ar:   -0.000392
Sum of atomic charges:    0.0000000

LOEWDIN ATOMIC CHARGES
----------------------
   0 Ar:    0.000550
   1 Ar:   -0.001100
   2 Ar:    0.000550

E(0)                                       ...  -1580.401578743
E(0)                                       ...  -1580.401578743
E(CORR)(strong-pairs)                      ...     -0.001618311
E(CORR)(weak-pairs)                        ...     -0.000122419
E(CORR)(corrected)                         ...     -0.001740730
E(TOT)                                     ...  -1580.403319473
FINAL SINGLE POINT ENERGY     -1580.403223535841

DIPOLE MOMENT
-------------

Method             : SCF
Type of density    : Electron Density
Multiplicity       :   1
Irrep              :   0
Energy             : -1580.4015787435118909 Eh
Relativity type    :
Basis              : AO
                                X                 Y                 Z
Electronic contribution:      0.000301820      -0.000269984       0.000000000
Nuclear contribution   :      0.000000000      -0.000000000       0.000000000
                        -----------------------------------------
Total Dipole Moment    :      0.000301820      -0.000269984       0.000000000
                        -----------------------------------------
Magnitude (a.u.)       :      0.000404953
Magnitude (Debye)      :      0.001029309

Rotational constants in cm-1:             0.087915             0.036631             0.025857
Rotational constants in MHz :          2635.611084          1098.171285           775.179731

                             ****ORCA TERMINATED NORMALLY****
TOTAL RUN TIME: 0 days 0 hours 0 minutes 14 seconds 308 msec
