                         Program Version 6.0.0  -   RELEASE  -
|  1> # MP2 scan of the potential energy curve for Ar...Ar
|  2>                 ! HFLD aug-cc-pvdz aug-cc-pvdz/C verytightscf
|  3>                 *xyz 0 1
|  4>                 Ar(1)	0    0	0.00000000000000
|  5>                 Ar(2)	3.6	0    0.00000000000000
|  6>                 Ar(3)	2.5999999999999996	3.039736830714133    0.00000000000000
|  7>                 **                         ****END OF INPUT****

CARTESIAN COORDINATES (ANGSTROEM)
---------------------------------
  Ar     0.000000    0.000000    0.000000
  Ar     3.600000    0.000000    0.000000
  Ar     2.600000    3.039737    0.000000

 Total Charge           Charge          ....    0
 Multiplicity           Mult            ....    1
 Number of Electrons    NEL             ....   54
 Basis Dimension        Dim             ....   81

ORBITAL ENERGIES
----------------

  NO   OCC          E(Eh)            E(eV)
   0   2.0000    -118.610115     -3227.5453
   1   2.0000    -118.608861     -3227.5112
   2   2.0000    -118.608436     -3227.4996
   3   2.0000     -12.322293      -335.3066
   4   2.0000     -12.321223      -335.2775
   5   2.0000     -12.320825      -335.2667
   6   2.0000      -9.570889      -260.4371
   7   2.0000      -9.570888      -260.4371
   8   2.0000      -9.570884      -260.4370
   9   2.0000      -9.569814      -260.4079
  10   2.0000      -9.569805      -260.4076
  11   2.0000      -9.569803      -260.4076
  12   2.0000      -9.569422      -260.3972
  13   2.0000      -9.569414      -260.3970
  14   2.0000      -9.569408      -260.3968
  15   2.0000      -1.281999       -34.8850
  16   2.0000      -1.278430       -34.7879
  17   2.0000      -1.275033       -34.6954
  18   2.0000      -0.613662       -16.6986
  19   2.0000      -0.602609       -16.3978
  20   2.0000      -0.595641       -16.2082
  21   2.0000      -0.594444       -16.1757
  22   2.0000      -0.591492       -16.0953
  23   2.0000      -0.587822       -15.9954
  24   2.0000      -0.587563       -15.9884
  25   2.0000      -0.581973       -15.8363
  26   2.0000      -0.571176       -15.5425
  27   0.0000       0.117986         3.2106
  28   0.0000       0.123139         3.3508
  29   0.0000       0.131719         3.5843
  30   0.0000       0.135019         3.6741
  31   0.0000       0.166004         4.5172

MULLIKEN ATOMIC CHARGES
-----------------------
   0 Ar:   -0.000396
   1 Ar:    0.000814
   2 Ar:   -0.000418
Sum of atomic charges:    0.0000000

LOEWDIN ATOMIC CHARGES
----------------------
   0 Ar:    0.001257
   1 Ar:   -0.001469
   2 Ar:    0.000212

E(0)                                       ...  -1580.399092879
E(0)                                       ...  -1580.399092879
E(CORR)(strong-pairs)                      ...     -0.002680632
E(CORR)(weak-pairs)                        ...     -0.000081300
E(CORR)(corrected)                         ...     -0.002761932
E(TOT)                                     ...  -1580.401854811
FINAL SINGLE POINT ENERGY     -1580.401643089621

DIPOLE MOMENT
-------------

Method             : SCF
Type of density    : Electron Density
Multiplicity       :   1
Irrep              :   0
Energy             : -1580.3990928784817243 Eh
Relativity type    :
Basis              : AO
                                X                 Y                 Z
Electronic contribution:     -0.000402078      -0.000417376       0.000000000
Nuclear contribution   :     -0.000000000      -0.000000000       0.000000000
                        -----------------------------------------
Total Dipole Moment    :     -0.000402078      -0.000417376       0.000000000
                        -----------------------------------------
Magnitude (a.u.)       :      0.000579542
Magnitude (Debye)      :      0.001473078

Rotational constants in cm-1:             0.086656             0.051481             0.032295
Rotational constants in MHz :          2597.882553          1543.369431           968.183664

                             ****ORCA TERMINATED NORMALLY****
TOTAL RUN TIME: 0 days 0 hours 0 minutes 14 seconds 634 msec
