                         Program Version 6.0.0  -   RELEASE  -
|  1> # MP2 scan of the potential energy curve for Ar...Ar
|  2>                 ! HFLD aug-cc-pvdz aug-cc-pvdz/C verytightscf
|  3>                 *xyz 0 1
|  4>                 Ar(1)	0    0	0.00000000000000
|  5>                 Ar(2)	4.4	0    0.00000000000000
|  6>                 Ar(3)	2.2	4.266145801540309    0.00000000000000
|  7>                 **                         ****END OF INPUT****

CARTESIAN COORDINATES (ANGSTROEM)
---------------------------------
  Ar     0.000000    0.000000    0.000000
  Ar     4.400000    0.000000    0.000000
  Ar     2.200000    4.266146    0.000000

 Total Charge           Charge          ....    0
 Multiplicity           Mult            ....    1
 Number of Electrons    NEL             ....   54
 Basis Dimension        Dim             ....   81

ORBITAL ENERGIES
----------------

  NO   OCC          E(Eh)            E(eV)
   0   2.0000    -118.610548     -3227.5571
   1   2.0000    -118.610522     -3227.5564
   2   2.0000    -118.610522     -3227.5564
   3   2.0000     -12.322731      -335.3185
   4   2.0000     -12.322690      -335.3175
   5   2.0000     -12.322683      -335.3173
   6   2.0000      -9.571311      -260.4486
   7   2.0000      -9.571309      -260.4486
   8   2.0000      -9.571308      -260.4485
   9   2.0000      -9.571272      -260.4476
  10   2.0000      -9.571272      -260.4475
  11   2.0000      -9.571270      -260.4475
  12   2.0000      -9.571270      -260.4475
  13   2.0000      -9.571270      -260.4475
  14   2.0000      -9.571270      -260.4475
  15   2.0000      -1.278953       -34.8021
  16   2.0000      -1.278793       -34.7977
  17   2.0000      -1.278649       -34.7938
  18   2.0000      -0.594743       -16.1838
  19   2.0000      -0.593329       -16.1453
  20   2.0000      -0.592755       -16.1297
  21   2.0000      -0.592497       -16.1227
  22   2.0000      -0.592107       -16.1120
  23   2.0000      -0.591879       -16.1059
  24   2.0000      -0.591344       -16.0913
  25   2.0000      -0.591060       -16.0836
  26   2.0000      -0.589829       -16.0501
  27   0.0000       0.119898         3.2626
  28   0.0000       0.126232         3.4349
  29   0.0000       0.127328         3.4648
  30   0.0000       0.129720         3.5299
  31   0.0000       0.155963         4.2440

MULLIKEN ATOMIC CHARGES
-----------------------
   0 Ar:    0.000013
   1 Ar:    0.000013
   2 Ar:   -0.000025
Sum of atomic charges:   -0.0000000

LOEWDIN ATOMIC CHARGES
----------------------
   0 Ar:   -0.000021
   1 Ar:   -0.000021
   2 Ar:    0.000042

E(0)                                       ...  -1580.402936955
E(0)                                       ...  -1580.402936955
E(CORR)(strong-pairs)                      ...     -0.000236126
E(CORR)(weak-pairs)                        ...     -0.000233970
E(CORR)(corrected)                         ...     -0.000470096
E(TOT)                                     ...  -1580.403407051
FINAL SINGLE POINT ENERGY     -1580.403406067426

DIPOLE MOMENT
-------------

Method             : SCF
Type of density    : Electron Density
Multiplicity       :   1
Irrep              :   0
Energy             : -1580.4029369550937645 Eh
Relativity type    :
Basis              : AO
                                X                 Y                 Z
Electronic contribution:     -0.000000000      -0.000021246       0.000000000
Nuclear contribution   :      0.000000000       0.000000000       0.000000000
                        -----------------------------------------
Total Dipole Moment    :     -0.000000000      -0.000021246       0.000000000
                        -----------------------------------------
Magnitude (a.u.)       :      0.000021246
Magnitude (Debye)      :      0.000054003

Rotational constants in cm-1:             0.043594             0.034779             0.019345
Rotational constants in MHz :          1306.914587          1042.659330           579.963319

                             ****ORCA TERMINATED NORMALLY****
TOTAL RUN TIME: 0 days 0 hours 0 minutes 9 seconds 29 msec
