                         Program Version 6.0.0  -   RELEASE  -
|  1> # MP2 scan of the potential energy curve for Ar...Ar
|  2>                 ! HFLD aug-cc-pvdz aug-cc-pvdz/C verytightscf
|  3>                 *xyz 0 1
|  4>                 Ar(1)	0    0	0.00000000000000
|  5>                 Ar(2)	3.2	0    0.00000000000000
|  6>                 Ar(3)	1.6000000000000003	4.09878030638384    0.00000000000000
|  7>                 **                         ****END OF INPUT****

CARTESIAN COORDINATES (ANGSTROEM)
---------------------------------
  Ar     0.000000    0.000000    0.000000
  Ar     3.200000    0.000000    0.000000
  Ar     1.600000    4.098780    0.000000

 Total Charge           Charge          ....    0
 Multiplicity           Mult            ....    1
 Number of Electrons    NEL             ....   54
 Basis Dimension        Dim             ....   81

ORBITAL ENERGIES
----------------

  NO   OCC          E(Eh)            E(eV)
   0   2.0000    -118.610623     -3227.5591
   1   2.0000    -118.608885     -3227.5118
   2   2.0000    -118.608884     -3227.5118
   3   2.0000     -12.322782      -335.3199
   4   2.0000     -12.321258      -335.2785
   5   2.0000     -12.321246      -335.2781
   6   2.0000      -9.571367      -260.4501
   7   2.0000      -9.571366      -260.4501
   8   2.0000      -9.571366      -260.4501
   9   2.0000      -9.569841      -260.4086
  10   2.0000      -9.569839      -260.4085
  11   2.0000      -9.569832      -260.4084
  12   2.0000      -9.569831      -260.4084
  13   2.0000      -9.569831      -260.4083
  14   2.0000      -9.569830      -260.4083
  15   2.0000      -1.281709       -34.8771
  16   2.0000      -1.278875       -34.8000
  17   2.0000      -1.275197       -34.6999
  18   2.0000      -0.612920       -16.6784
  19   2.0000      -0.596827       -16.2405
  20   2.0000      -0.595163       -16.1952
  21   2.0000      -0.592597       -16.1254
  22   2.0000      -0.592196       -16.1145
  23   2.0000      -0.590538       -16.0693
  24   2.0000      -0.588032       -16.0012
  25   2.0000      -0.587709       -15.9924
  26   2.0000      -0.571316       -15.5463
  27   0.0000       0.118490         3.2243
  28   0.0000       0.129525         3.5246
  29   0.0000       0.130034         3.5384
  30   0.0000       0.130365         3.5474
  31   0.0000       0.158446         4.3115

MULLIKEN ATOMIC CHARGES
-----------------------
   0 Ar:    0.000104
   1 Ar:    0.000104
   2 Ar:   -0.000207
Sum of atomic charges:   -0.0000000

LOEWDIN ATOMIC CHARGES
----------------------
   0 Ar:   -0.000342
   1 Ar:   -0.000342
   2 Ar:    0.000683

E(0)                                       ...  -1580.399857735
E(0)                                       ...  -1580.399857735
E(CORR)(strong-pairs)                      ...     -0.001896104
E(CORR)(weak-pairs)                        ...     -0.000116064
E(CORR)(corrected)                         ...     -0.002012168
E(TOT)                                     ...  -1580.401869903
FINAL SINGLE POINT ENERGY     -1580.401700803894

DIPOLE MOMENT
-------------

Method             : SCF
Type of density    : Electron Density
Multiplicity       :   1
Irrep              :   0
Energy             : -1580.3998577349182142 Eh
Relativity type    :
Basis              : AO
                                X                 Y                 Z
Electronic contribution:     -0.000000000       0.000502327       0.000000000
Nuclear contribution   :      0.000000000      -0.000000000       0.000000000
                        -----------------------------------------
Total Dipole Moment    :     -0.000000000       0.000502327       0.000000000
                        -----------------------------------------
Magnitude (a.u.)       :      0.000502327
Magnitude (Debye)      :      0.001276813

Rotational constants in cm-1:             0.082420             0.037678             0.025857
Rotational constants in MHz :          2470.885392          1129.547608           775.179731

                             ****ORCA TERMINATED NORMALLY****
TOTAL RUN TIME: 0 days 0 hours 0 minutes 11 seconds 33 msec
