                         Program Version 6.0.0  -   RELEASE  -
|  1> # MP2 scan of the potential energy curve for Ar...Ar
|  2>                 ! HFLD aug-cc-pvdz aug-cc-pvdz/C verytightscf
|  3>                 *xyz 0 1
|  4>                 Ar(1)	0    0	0.00000000000000
|  5>                 Ar(2)	4.4	0    0.00000000000000
|  6>                 Ar(3)	3.654545454545454	3.1119603983118362    0.00000000000000
|  7>                 **                         ****END OF INPUT****

CARTESIAN COORDINATES (ANGSTROEM)
---------------------------------
  Ar     0.000000    0.000000    0.000000
  Ar     4.400000    0.000000    0.000000
  Ar     3.654545    3.111960    0.000000

 Total Charge           Charge          ....    0
 Multiplicity           Mult            ....    1
 Number of Electrons    NEL             ....   54
 Basis Dimension        Dim             ....   81

ORBITAL ENERGIES
----------------

  NO   OCC          E(Eh)            E(eV)
   0   2.0000    -118.610627     -3227.5592
   1   2.0000    -118.608904     -3227.5124
   2   2.0000    -118.608885     -3227.5118
   3   2.0000     -12.322799      -335.3204
   4   2.0000     -12.321290      -335.2794
   5   2.0000     -12.321248      -335.2782
   6   2.0000      -9.571381      -260.4505
   7   2.0000      -9.571379      -260.4505
   8   2.0000      -9.571379      -260.4505
   9   2.0000      -9.569873      -260.4095
  10   2.0000      -9.569865      -260.4093
  11   2.0000      -9.569863      -260.4092
  12   2.0000      -9.569838      -260.4085
  13   2.0000      -9.569830      -260.4083
  14   2.0000      -9.569829      -260.4083
  15   2.0000      -1.281717       -34.8773
  16   2.0000      -1.278895       -34.8005
  17   2.0000      -1.275212       -34.7003
  18   2.0000      -0.612897       -16.6778
  19   2.0000      -0.596303       -16.2262
  20   2.0000      -0.595156       -16.1950
  21   2.0000      -0.592402       -16.1201
  22   2.0000      -0.592238       -16.1156
  23   2.0000      -0.591341       -16.0912
  24   2.0000      -0.588046       -16.0015
  25   2.0000      -0.587700       -15.9921
  26   2.0000      -0.571332       -15.5467
  27   0.0000       0.119135         3.2418
  28   0.0000       0.128066         3.4849
  29   0.0000       0.129621         3.5272
  30   0.0000       0.132266         3.5991
  31   0.0000       0.154951         4.2164

MULLIKEN ATOMIC CHARGES
-----------------------
   0 Ar:   -0.000150
   1 Ar:    0.000243
   2 Ar:   -0.000093
Sum of atomic charges:   -0.0000000

LOEWDIN ATOMIC CHARGES
----------------------
   0 Ar:    0.000499
   1 Ar:   -0.000463
   2 Ar:   -0.000036

E(0)                                       ...  -1580.399871693
E(0)                                       ...  -1580.399871693
E(CORR)(strong-pairs)                      ...     -0.001817362
E(CORR)(weak-pairs)                        ...     -0.000197621
E(CORR)(corrected)                         ...     -0.002014984
E(TOT)                                     ...  -1580.401886677
FINAL SINGLE POINT ENERGY     -1580.401709097661

DIPOLE MOMENT
-------------

Method             : SCF
Type of density    : Electron Density
Multiplicity       :   1
Irrep              :   0
Energy             : -1580.3998716933995183 Eh
Relativity type    :
Basis              : AO
                                X                 Y                 Z
Electronic contribution:     -0.000308980      -0.000362858      -0.000000000
Nuclear contribution   :     -0.000000000      -0.000000000       0.000000000
                        -----------------------------------------
Total Dipole Moment    :     -0.000308980      -0.000362858      -0.000000000
                        -----------------------------------------
Magnitude (a.u.)       :      0.000476586
Magnitude (Debye)      :      0.001211386

Rotational constants in cm-1:             0.084930             0.033550             0.024050
Rotational constants in MHz :          2546.135015          1005.799637           720.987835

                             ****ORCA TERMINATED NORMALLY****
TOTAL RUN TIME: 0 days 0 hours 0 minutes 7 seconds 59 msec
