                         Program Version 6.0.0  -   RELEASE  -
|  1> # MP2 scan of the potential energy curve for Ar...Ar
|  2>                 ! HFLD aug-cc-pvdz aug-cc-pvdz/C verytightscf
|  3>                 *xyz 0 1
|  4>                 Ar(1)	0    0	0.00000000000000
|  5>                 Ar(2)	4.0	0    0.00000000000000
|  6>                 Ar(3)	0.98	2.622899159327327    0.00000000000000
|  7>                 **                         ****END OF INPUT****

CARTESIAN COORDINATES (ANGSTROEM)
---------------------------------
  Ar     0.000000    0.000000    0.000000
  Ar     4.000000    0.000000    0.000000
  Ar     0.980000    2.622899    0.000000

 Total Charge           Charge          ....    0
 Multiplicity           Mult            ....    1
 Number of Electrons    NEL             ....   54
 Basis Dimension        Dim             ....   81

ORBITAL ENERGIES
----------------

  NO   OCC          E(Eh)            E(eV)
   0   2.0000    -118.610690     -3227.5610
   1   2.0000    -118.605607     -3227.4226
   2   2.0000    -118.605606     -3227.4226
   3   2.0000     -12.322837      -335.3214
   4   2.0000     -12.318676      -335.2082
   5   2.0000     -12.318653      -335.2076
   6   2.0000      -9.571429      -260.4518
   7   2.0000      -9.571428      -260.4518
   8   2.0000      -9.571426      -260.4518
   9   2.0000      -9.567260      -260.3384
  10   2.0000      -9.567259      -260.3384
  11   2.0000      -9.567164      -260.3358
  12   2.0000      -9.567162      -260.3357
  13   2.0000      -9.567161      -260.3357
  14   2.0000      -9.567159      -260.3356
  15   2.0000      -1.287847       -35.0441
  16   2.0000      -1.278998       -34.8033
  17   2.0000      -1.269622       -34.5482
  18   2.0000      -0.633567       -17.2402
  19   2.0000      -0.602834       -16.4040
  20   2.0000      -0.599574       -16.3152
  21   2.0000      -0.593037       -16.1373
  22   2.0000      -0.592258       -16.1162
  23   2.0000      -0.589060       -16.0291
  24   2.0000      -0.582694       -15.8559
  25   2.0000      -0.582102       -15.8398
  26   2.0000      -0.550118       -14.9695
  27   0.0000       0.115107         3.1322
  28   0.0000       0.126666         3.4467
  29   0.0000       0.132356         3.6016
  30   0.0000       0.134272         3.6537
  31   0.0000       0.162988         4.4351

MULLIKEN ATOMIC CHARGES
-----------------------
   0 Ar:    0.000194
   1 Ar:   -0.000387
   2 Ar:    0.000194
Sum of atomic charges:    0.0000000

LOEWDIN ATOMIC CHARGES
----------------------
   0 Ar:   -0.000963
   1 Ar:    0.001927
   2 Ar:   -0.000963

E(0)                                       ...  -1580.389699691
E(0)                                       ...  -1580.389699691
E(CORR)(strong-pairs)                      ...     -0.003904454
E(CORR)(weak-pairs)                        ...     -0.000083733
E(CORR)(corrected)                         ...     -0.003988187
E(TOT)                                     ...  -1580.393687878
FINAL SINGLE POINT ENERGY     -1580.393051408715

DIPOLE MOMENT
-------------

Method             : SCF
Type of density    : Electron Density
Multiplicity       :   1
Irrep              :   0
Energy             : -1580.3896996913870225 Eh
Relativity type    :
Basis              : AO
                                X                 Y                 Z
Electronic contribution:      0.001394888      -0.000521181      -0.000000000
Nuclear contribution   :     -0.000000000      -0.000000000       0.000000000
                        -----------------------------------------
Total Dipole Moment    :      0.001394888      -0.000521181      -0.000000000
                        -----------------------------------------
Magnitude (a.u.)       :      0.001489074
Magnitude (Debye)      :      0.003784926

Rotational constants in cm-1:             0.107650             0.045084             0.031776
Rotational constants in MHz :          3227.278879          1351.595428           952.630512

                             ****ORCA TERMINATED NORMALLY****
TOTAL RUN TIME: 0 days 0 hours 0 minutes 13 seconds 948 msec
