                         Program Version 6.0.0  -   RELEASE  -
|  1> # MP2 scan of the potential energy curve for Ar...Ar
|  2>                 ! HFLD aug-cc-pvdz aug-cc-pvdz/C verytightscf
|  3>                 *xyz 0 1
|  4>                 Ar(1)	0    0	0.00000000000000
|  5>                 Ar(2)	4.8	0    0.00000000000000
|  6>                 Ar(3)	2.4	1.4422205101855954    0.00000000000000
|  7>                 **                         ****END OF INPUT****

CARTESIAN COORDINATES (ANGSTROEM)
---------------------------------
  Ar     0.000000    0.000000    0.000000
  Ar     4.800000    0.000000    0.000000
  Ar     2.400000    1.442221    0.000000

 Total Charge           Charge          ....    0
 Multiplicity           Mult            ....    1
 Number of Electrons    NEL             ....   54
 Basis Dimension        Dim             ....   81

ORBITAL ENERGIES
----------------

  NO   OCC          E(Eh)            E(eV)
   0   2.0000    -118.605542     -3227.4209
   1   2.0000    -118.605542     -3227.4209
   2   2.0000    -118.600864     -3227.2936
   3   2.0000     -12.318631      -335.2070
   4   2.0000     -12.318621      -335.2067
   5   2.0000     -12.314874      -335.1048
   6   2.0000      -9.567211      -260.3370
   7   2.0000      -9.567211      -260.3370
   8   2.0000      -9.567115      -260.3344
   9   2.0000      -9.567115      -260.3344
  10   2.0000      -9.567114      -260.3344
  11   2.0000      -9.567114      -260.3344
  12   2.0000      -9.563414      -260.2337
  13   2.0000      -9.563322      -260.2312
  14   2.0000      -9.563273      -260.2299
  15   2.0000      -1.291440       -35.1419
  16   2.0000      -1.278814       -34.7983
  17   2.0000      -1.265820       -34.4447
  18   2.0000      -0.642417       -17.4811
  19   2.0000      -0.622993       -16.9525
  20   2.0000      -0.602436       -16.3931
  21   2.0000      -0.591586       -16.0979
  22   2.0000      -0.591098       -16.0846
  23   2.0000      -0.590800       -16.0765
  24   2.0000      -0.578715       -15.7476
  25   2.0000      -0.559228       -15.2174
  26   2.0000      -0.540262       -14.7013
  27   0.0000       0.120590         3.2814
  28   0.0000       0.128823         3.5055
  29   0.0000       0.137053         3.7294
  30   0.0000       0.140156         3.8138
  31   0.0000       0.148457         4.0397

MULLIKEN ATOMIC CHARGES
-----------------------
   0 Ar:   -0.000770
   1 Ar:   -0.000770
   2 Ar:    0.001540
Sum of atomic charges:   -0.0000000

LOEWDIN ATOMIC CHARGES
----------------------
   0 Ar:    0.002487
   1 Ar:    0.002487
   2 Ar:   -0.004973

E(0)                                       ...  -1580.376889467
E(0)                                       ...  -1580.376889467
E(CORR)(strong-pairs)                      ...     -0.006589565
E(CORR)(weak-pairs)                        ...     -0.000247038
E(CORR)(corrected)                         ...     -0.006836604
E(TOT)                                     ...  -1580.383726071
FINAL SINGLE POINT ENERGY     -1580.382348603376

DIPOLE MOMENT
-------------

Method             : SCF
Type of density    : Electron Density
Multiplicity       :   1
Irrep              :   0
Energy             : -1580.3768894672055012 Eh
Relativity type    :
Basis              : AO
                                X                 Y                 Z
Electronic contribution:     -0.000000000       0.004059892      -0.000000000
Nuclear contribution   :      0.000000000       0.000000000       0.000000000
                        -----------------------------------------
Total Dipole Moment    :     -0.000000000       0.004059892      -0.000000000
                        -----------------------------------------
Magnitude (a.u.)       :      0.004059892
Magnitude (Debye)      :      0.010319426

Rotational constants in cm-1:             0.304320             0.036631             0.032695
Rotational constants in MHz :          9123.269138          1098.171285           980.185940

                             ****ORCA TERMINATED NORMALLY****
TOTAL RUN TIME: 0 days 0 hours 0 minutes 10 seconds 496 msec
