                         Program Version 6.0.0  -   RELEASE  -
|  1> # MP2 scan of the potential energy curve for Ar...Ar
|  2>                 ! HFLD aug-cc-pvdz aug-cc-pvdz/C verytightscf
|  3>                 *xyz 0 1
|  4>                 Ar(1)	0    0	0.00000000000000
|  5>                 Ar(2)	2.8	0    0.00000000000000
|  6>                 Ar(3)	1.4	2.424871130596428    0.00000000000000
|  7>                 **                         ****END OF INPUT****

CARTESIAN COORDINATES (ANGSTROEM)
---------------------------------
  Ar     0.000000    0.000000    0.000000
  Ar     2.800000    0.000000    0.000000
  Ar     1.400000    2.424871    0.000000

 Total Charge           Charge          ....    0
 Multiplicity           Mult            ....    1
 Number of Electrons    NEL             ....   54
 Basis Dimension        Dim             ....   81

ORBITAL ENERGIES
----------------

  NO   OCC          E(Eh)            E(eV)
   0   2.0000    -118.602241     -3227.3310
   1   2.0000    -118.602241     -3227.3310
   2   2.0000    -118.602240     -3227.3310
   3   2.0000     -12.316149      -335.1395
   4   2.0000     -12.316149      -335.1395
   5   2.0000     -12.316115      -335.1385
   6   2.0000      -9.564704      -260.2688
   7   2.0000      -9.564704      -260.2688
   8   2.0000      -9.564702      -260.2688
   9   2.0000      -9.564583      -260.2655
  10   2.0000      -9.564580      -260.2654
  11   2.0000      -9.564580      -260.2654
  12   2.0000      -9.564544      -260.2645
  13   2.0000      -9.564544      -260.2645
  14   2.0000      -9.564540      -260.2644
  15   2.0000      -1.298109       -35.3233
  16   2.0000      -1.270486       -34.5717
  17   2.0000      -1.270486       -34.5717
  18   2.0000      -0.654785       -17.8176
  19   2.0000      -0.620275       -16.8785
  20   2.0000      -0.620275       -16.8785
  21   2.0000      -0.607856       -16.5406
  22   2.0000      -0.582674       -15.8554
  23   2.0000      -0.582674       -15.8554
  24   2.0000      -0.558777       -15.2051
  25   2.0000      -0.548277       -14.9194
  26   2.0000      -0.548277       -14.9194
  27   0.0000       0.113939         3.1004
  28   0.0000       0.113939         3.1004
  29   0.0000       0.134635         3.6636
  30   0.0000       0.140777         3.8307
  31   0.0000       0.174370         4.7449

MULLIKEN ATOMIC CHARGES
-----------------------
   0 Ar:    0.000000
   1 Ar:    0.000000
   2 Ar:   -0.000000
Sum of atomic charges:   -0.0000000

LOEWDIN ATOMIC CHARGES
----------------------
   0 Ar:    0.000000
   1 Ar:    0.000000
   2 Ar:   -0.000000

E(0)                                       ...  -1580.365310328
E(0)                                       ...  -1580.365310328
E(CORR)(strong-pairs)                      ...     -0.009139586
E(CORR)(weak-pairs)                        ...     -0.000203954
E(CORR)(corrected)                         ...     -0.009343540
E(TOT)                                     ...  -1580.374653868
FINAL SINGLE POINT ENERGY     -1580.372910994843

DIPOLE MOMENT
-------------

Method             : SCF
Type of density    : Electron Density
Multiplicity       :   1
Irrep              :   0
Energy             : -1580.3653103282297252 Eh
Relativity type    :
Basis              : AO
                                X                 Y                 Z
Electronic contribution:     -0.000000000      -0.000000003       0.000000000
Nuclear contribution   :      0.000000000      -0.000000000       0.000000000
                        -----------------------------------------
Total Dipole Moment    :     -0.000000000      -0.000000003       0.000000000
                        -----------------------------------------
Magnitude (a.u.)       :      0.000000003
Magnitude (Debye)      :      0.000000007

Rotational constants in cm-1:             0.107650             0.107650             0.053825
Rotational constants in MHz :          3227.278879          3227.278879          1613.639439

                             ****ORCA TERMINATED NORMALLY****
TOTAL RUN TIME: 0 days 0 hours 0 minutes 12 seconds 709 msec
