                         Program Version 6.0.0  -   RELEASE  -
|  1> # MP2 scan of the potential energy curve for Ar...Ar
|  2>                 ! HFLD aug-cc-pvdz aug-cc-pvdz/C verytightscf
|  3>                 *xyz 0 1
|  4>                 Ar(1)	0    0	0.00000000000000
|  5>                 Ar(2)	3.6	0    0.00000000000000
|  6>                 Ar(3)	2.688888888888889	3.4827972297005574    0.00000000000000
|  7>                 **                         ****END OF INPUT****

CARTESIAN COORDINATES (ANGSTROEM)
---------------------------------
  Ar     0.000000    0.000000    0.000000
  Ar     3.600000    0.000000    0.000000
  Ar     2.688889    3.482797    0.000000

 Total Charge           Charge          ....    0
 Multiplicity           Mult            ....    1
 Number of Electrons    NEL             ....   54
 Basis Dimension        Dim             ....   81

ORBITAL ENERGIES
----------------

  NO   OCC          E(Eh)            E(eV)
   0   2.0000    -118.610070     -3227.5441
   1   2.0000    -118.610070     -3227.5441
   2   2.0000    -118.609554     -3227.5300
   3   2.0000     -12.322260      -335.3057
   4   2.0000     -12.322251      -335.3055
   5   2.0000     -12.321750      -335.2919
   6   2.0000      -9.570848      -260.4360
   7   2.0000      -9.570848      -260.4360
   8   2.0000      -9.570848      -260.4360
   9   2.0000      -9.570847      -260.4360
  10   2.0000      -9.570843      -260.4359
  11   2.0000      -9.570842      -260.4359
  12   2.0000      -9.570355      -260.4226
  13   2.0000      -9.570351      -260.4225
  14   2.0000      -9.570347      -260.4224
  15   2.0000      -1.280232       -34.8369
  16   2.0000      -1.278501       -34.7898
  17   2.0000      -1.276939       -34.7473
  18   2.0000      -0.604048       -16.4370
  19   2.0000      -0.600668       -16.3450
  20   2.0000      -0.594076       -16.1656
  21   2.0000      -0.593296       -16.1444
  22   2.0000      -0.591681       -16.1005
  23   2.0000      -0.590089       -16.0571
  24   2.0000      -0.589796       -16.0492
  25   2.0000      -0.582693       -15.8559
  26   2.0000      -0.581109       -15.8128
  27   0.0000       0.120899         3.2898
  28   0.0000       0.125126         3.4049
  29   0.0000       0.129595         3.5265
  30   0.0000       0.133084         3.6214
  31   0.0000       0.161368         4.3910

MULLIKEN ATOMIC CHARGES
-----------------------
   0 Ar:   -0.000417
   1 Ar:    0.000834
   2 Ar:   -0.000417
Sum of atomic charges:    0.0000000

LOEWDIN ATOMIC CHARGES
----------------------
   0 Ar:    0.000530
   1 Ar:   -0.001059
   2 Ar:    0.000530

E(0)                                       ...  -1580.401567595
E(0)                                       ...  -1580.401567595
E(CORR)(strong-pairs)                      ...     -0.001666483
E(CORR)(weak-pairs)                        ...     -0.000118195
E(CORR)(corrected)                         ...     -0.001784678
E(TOT)                                     ...  -1580.403352273
FINAL SINGLE POINT ENERGY     -1580.403269850268

DIPOLE MOMENT
-------------

Method             : SCF
Type of density    : Electron Density
Multiplicity       :   1
Irrep              :   0
Energy             : -1580.4015675952095989 Eh
Relativity type    :
Basis              : AO
                                X                 Y                 Z
Electronic contribution:      0.000202950      -0.000156711      -0.000000000
Nuclear contribution   :     -0.000000000      -0.000000000       0.000000000
                        -----------------------------------------
Total Dipole Moment    :      0.000202950      -0.000156711      -0.000000000
                        -----------------------------------------
Magnitude (a.u.)       :      0.000256412
Magnitude (Debye)      :      0.000651748

Rotational constants in cm-1:             0.077954             0.043594             0.027959
Rotational constants in MHz :          2336.995050          1306.914587           838.180204

                             ****ORCA TERMINATED NORMALLY****
TOTAL RUN TIME: 0 days 0 hours 0 minutes 10 seconds 93 msec
