                         Program Version 6.0.0  -   RELEASE  -
|  1> # MP2 scan of the potential energy curve for Ar...Ar
|  2>                 ! HFLD aug-cc-pvdz aug-cc-pvdz/C verytightscf
|  3>                 *xyz 0 1
|  4>                 Ar(1)	0    0	0.00000000000000
|  5>                 Ar(2)	4.8	0    0.00000000000000
|  6>                 Ar(3)	3.983333333333333	2.678256066091433    0.00000000000000
|  7>                 **                         ****END OF INPUT****

CARTESIAN COORDINATES (ANGSTROEM)
---------------------------------
  Ar     0.000000    0.000000    0.000000
  Ar     4.800000    0.000000    0.000000
  Ar     3.983333    2.678256    0.000000

 Total Charge           Charge          ....    0
 Multiplicity           Mult            ....    1
 Number of Electrons    NEL             ....   54
 Basis Dimension        Dim             ....   81

ORBITAL ENERGIES
----------------

  NO   OCC          E(Eh)            E(eV)
   0   2.0000    -118.610771     -3227.5632
   1   2.0000    -118.605715     -3227.4256
   2   2.0000    -118.605714     -3227.4256
   3   2.0000     -12.322957      -335.3247
   4   2.0000     -12.318810      -335.2119
   5   2.0000     -12.318784      -335.2112
   6   2.0000      -9.571536      -260.4547
   7   2.0000      -9.571533      -260.4547
   8   2.0000      -9.571533      -260.4546
   9   2.0000      -9.567384      -260.3418
  10   2.0000      -9.567383      -260.3417
  11   2.0000      -9.567289      -260.3392
  12   2.0000      -9.567287      -260.3391
  13   2.0000      -9.567286      -260.3391
  14   2.0000      -9.567284      -260.3390
  15   2.0000      -1.287893       -35.0454
  16   2.0000      -1.279051       -34.8047
  17   2.0000      -1.269712       -34.5506
  18   2.0000      -0.633555       -17.2399
  19   2.0000      -0.599823       -16.3220
  20   2.0000      -0.599563       -16.3149
  21   2.0000      -0.592431       -16.1209
  22   2.0000      -0.592408       -16.1202
  23   2.0000      -0.592191       -16.1143
  24   2.0000      -0.582791       -15.8586
  25   2.0000      -0.582775       -15.8581
  26   2.0000      -0.550216       -14.9721
  27   0.0000       0.116273         3.1639
  28   0.0000       0.125945         3.4271
  29   0.0000       0.131573         3.5803
  30   0.0000       0.135745         3.6938
  31   0.0000       0.152239         4.1426

MULLIKEN ATOMIC CHARGES
-----------------------
   0 Ar:   -0.000108
   1 Ar:    0.000054
   2 Ar:    0.000054
Sum of atomic charges:   -0.0000000

LOEWDIN ATOMIC CHARGES
----------------------
   0 Ar:    0.000489
   1 Ar:   -0.000244
   2 Ar:   -0.000244

E(0)                                       ...  -1580.389939268
E(0)                                       ...  -1580.389939268
E(CORR)(strong-pairs)                      ...     -0.003435691
E(CORR)(weak-pairs)                        ...     -0.000240042
E(CORR)(corrected)                         ...     -0.003675733
E(TOT)                                     ...  -1580.393615001
FINAL SINGLE POINT ENERGY     -1580.392924391877

DIPOLE MOMENT
-------------

Method             : SCF
Type of density    : Electron Density
Multiplicity       :   1
Irrep              :   0
Energy             : -1580.3899392681482823 Eh
Relativity type    :
Basis              : AO
                                X                 Y                 Z
Electronic contribution:     -0.000759475      -0.000231557       0.000000000
Nuclear contribution   :      0.000000000       0.000000000       0.000000000
                        -----------------------------------------
Total Dipole Moment    :     -0.000759475      -0.000231557       0.000000000
                        -----------------------------------------
Magnitude (a.u.)       :      0.000793991
Magnitude (Debye)      :      0.002018164

Rotational constants in cm-1:             0.107650             0.030028             0.023479
Rotational constants in MHz :          3227.278879           900.208720           703.872396

                             ****ORCA TERMINATED NORMALLY****
TOTAL RUN TIME: 0 days 0 hours 0 minutes 12 seconds 424 msec
