                         Program Version 6.0.0  -   RELEASE  -
|  1> # MP2 scan of the potential energy curve for Ar...Ar
|  2>                 ! HFLD aug-cc-pvdz aug-cc-pvdz/C verytightscf
|  3>                 *xyz 0 1
|  4>                 Ar(1)	0    0	0.00000000000000
|  5>                 Ar(2)	4.4	0    0.00000000000000
|  6>                 Ar(3)	1.054545454545455	3.4420827828943223    0.00000000000000
|  7>                 **                         ****END OF INPUT****

CARTESIAN COORDINATES (ANGSTROEM)
---------------------------------
  Ar     0.000000    0.000000    0.000000
  Ar     4.400000    0.000000    0.000000
  Ar     1.054545    3.442083    0.000000

 Total Charge           Charge          ....    0
 Multiplicity           Mult            ....    1
 Number of Electrons    NEL             ....   54
 Basis Dimension        Dim             ....   81

ORBITAL ENERGIES
----------------

  NO   OCC          E(Eh)            E(eV)
   0   2.0000    -118.610562     -3227.5575
   1   2.0000    -118.610040     -3227.5433
   2   2.0000    -118.610020     -3227.5427
   3   2.0000     -12.322732      -335.3186
   4   2.0000     -12.322236      -335.3051
   5   2.0000     -12.322194      -335.3039
   6   2.0000      -9.571315      -260.4487
   7   2.0000      -9.571314      -260.4487
   8   2.0000      -9.571313      -260.4487
   9   2.0000      -9.570827      -260.4354
  10   2.0000      -9.570825      -260.4354
  11   2.0000      -9.570820      -260.4353
  12   2.0000      -9.570790      -260.4344
  13   2.0000      -9.570790      -260.4344
  14   2.0000      -9.570784      -260.4343
  15   2.0000      -1.279766       -34.8242
  16   2.0000      -1.278818       -34.7984
  17   2.0000      -1.277433       -34.7607
  18   2.0000      -0.602316       -16.3899
  19   2.0000      -0.595014       -16.1912
  20   2.0000      -0.593461       -16.1489
  21   2.0000      -0.592533       -16.1237
  22   2.0000      -0.592144       -16.1131
  23   2.0000      -0.591103       -16.0847
  24   2.0000      -0.590396       -16.0655
  25   2.0000      -0.589542       -16.0423
  26   2.0000      -0.581939       -15.8354
  27   0.0000       0.122092         3.3223
  28   0.0000       0.126681         3.4472
  29   0.0000       0.127926         3.4811
  30   0.0000       0.130846         3.5605
  31   0.0000       0.156067         4.2468

MULLIKEN ATOMIC CHARGES
-----------------------
   0 Ar:    0.000193
   1 Ar:   -0.000156
   2 Ar:   -0.000036
Sum of atomic charges:   -0.0000000

LOEWDIN ATOMIC CHARGES
----------------------
   0 Ar:   -0.000302
   1 Ar:    0.000298
   2 Ar:    0.000004

E(0)                                       ...  -1580.402249649
E(0)                                       ...  -1580.402249649
E(CORR)(strong-pairs)                      ...     -0.000992086
E(CORR)(weak-pairs)                        ...     -0.000174557
E(CORR)(corrected)                         ...     -0.001166644
E(TOT)                                     ...  -1580.403416293
FINAL SINGLE POINT ENERGY     -1580.403370622038

DIPOLE MOMENT
-------------

Method             : SCF
Type of density    : Electron Density
Multiplicity       :   1
Irrep              :   0
Energy             : -1580.4022496491747916 Eh
Relativity type    :
Basis              : AO
                                X                 Y                 Z
Electronic contribution:      0.000052196      -0.000160700      -0.000000000
Nuclear contribution   :      0.000000000       0.000000000       0.000000000
                        -----------------------------------------
Total Dipole Moment    :      0.000052196      -0.000160700      -0.000000000
                        -----------------------------------------
Magnitude (a.u.)       :      0.000168965
Magnitude (Debye)      :      0.000429474

Rotational constants in cm-1:             0.067177             0.034670             0.022868
Rotational constants in MHz :          2013.928237          1039.380139           685.563577

                             ****ORCA TERMINATED NORMALLY****
TOTAL RUN TIME: 0 days 0 hours 0 minutes 8 seconds 297 msec
