                         Program Version 6.0.0  -   RELEASE  -
|  1> # MP2 scan of the potential energy curve for Ar...Ar
|  2>                 ! HFLD aug-cc-pvdz aug-cc-pvdz/C verytightscf
|  3>                 *xyz 0 1
|  4>                 Ar(1)	0    0	0.00000000000000
|  5>                 Ar(2)	3.6	0    0.00000000000000
|  6>                 Ar(3)	1.8	4.449719092257397    0.00000000000000
|  7>                 **                         ****END OF INPUT****

CARTESIAN COORDINATES (ANGSTROEM)
---------------------------------
  Ar     0.000000    0.000000    0.000000
  Ar     3.600000    0.000000    0.000000
  Ar     1.800000    4.449719    0.000000

 Total Charge           Charge          ....    0
 Multiplicity           Mult            ....    1
 Number of Electrons    NEL             ....   54
 Basis Dimension        Dim             ....   81

ORBITAL ENERGIES
----------------

  NO   OCC          E(Eh)            E(eV)
   0   2.0000    -118.610584     -3227.5581
   1   2.0000    -118.610040     -3227.5433
   2   2.0000    -118.610040     -3227.5433
   3   2.0000     -12.322768      -335.3196
   4   2.0000     -12.322237      -335.3051
   5   2.0000     -12.322230      -335.3049
   6   2.0000      -9.571348      -260.4496
   7   2.0000      -9.571346      -260.4496
   8   2.0000      -9.571345      -260.4495
   9   2.0000      -9.570826      -260.4354
  10   2.0000      -9.570825      -260.4354
  11   2.0000      -9.570824      -260.4354
  12   2.0000      -9.570823      -260.4353
  13   2.0000      -9.570819      -260.4352
  14   2.0000      -9.570817      -260.4352
  15   2.0000      -1.279769       -34.8243
  16   2.0000      -1.278858       -34.7995
  17   2.0000      -1.277452       -34.7612
  18   2.0000      -0.602291       -16.3892
  19   2.0000      -0.594247       -16.1703
  20   2.0000      -0.593443       -16.1484
  21   2.0000      -0.592406       -16.1202
  22   2.0000      -0.592206       -16.1147
  23   2.0000      -0.591398       -16.0928
  24   2.0000      -0.590421       -16.0662
  25   2.0000      -0.590254       -16.0616
  26   2.0000      -0.581958       -15.8359
  27   0.0000       0.122468         3.3325
  28   0.0000       0.123778         3.3682
  29   0.0000       0.128012         3.4834
  30   0.0000       0.132889         3.6161
  31   0.0000       0.154077         4.1927

MULLIKEN ATOMIC CHARGES
-----------------------
   0 Ar:    0.000056
   1 Ar:    0.000056
   2 Ar:   -0.000111
Sum of atomic charges:    0.0000000

LOEWDIN ATOMIC CHARGES
----------------------
   0 Ar:   -0.000105
   1 Ar:   -0.000105
   2 Ar:    0.000210

E(0)                                       ...  -1580.402264216
E(0)                                       ...  -1580.402264216
E(CORR)(strong-pairs)                      ...     -0.000905786
E(CORR)(weak-pairs)                        ...     -0.000177597
E(CORR)(corrected)                         ...     -0.001083382
E(TOT)                                     ...  -1580.403347598
FINAL SINGLE POINT ENERGY     -1580.403293879284

DIPOLE MOMENT
-------------

Method             : SCF
Type of density    : Electron Density
Multiplicity       :   1
Irrep              :   0
Energy             : -1580.4022642163786259 Eh
Relativity type    :
Basis              : AO
                                X                 Y                 Z
Electronic contribution:     -0.000000000       0.000102411      -0.000000000
Nuclear contribution   :      0.000000000       0.000000000       0.000000000
                        -----------------------------------------
Total Dipole Moment    :     -0.000000000       0.000102411      -0.000000000
                        -----------------------------------------
Magnitude (a.u.)       :      0.000102411
Magnitude (Debye)      :      0.000260308

Rotational constants in cm-1:             0.065122             0.031969             0.021443
Rotational constants in MHz :          1952.304507           958.404031           642.831972

                             ****ORCA TERMINATED NORMALLY****
TOTAL RUN TIME: 0 days 0 hours 0 minutes 8 seconds 741 msec
