                         Program Version 6.0.0  -   RELEASE  -
|  1> # MP2 scan of the potential energy curve for Ar...Ar
|  2>                 ! HFLD aug-cc-pvdz aug-cc-pvdz/C verytightscf
|  3>                 *xyz 0 1
|  4>                 Ar(1)	0    0	0.00000000000000
|  5>                 Ar(2)	2.8	0    0.00000000000000
|  6>                 Ar(3)	0.9142857142857144	3.066607511999712    0.00000000000000
|  7>                 **                         ****END OF INPUT****

CARTESIAN COORDINATES (ANGSTROEM)
---------------------------------
  Ar     0.000000    0.000000    0.000000
  Ar     2.800000    0.000000    0.000000
  Ar     0.914286    3.066608    0.000000

 Total Charge           Charge          ....    0
 Multiplicity           Mult            ....    1
 Number of Electrons    NEL             ....   54
 Basis Dimension        Dim             ....   81

ORBITAL ENERGIES
----------------

  NO   OCC          E(Eh)            E(eV)
   0   2.0000    -118.609080     -3227.5171
   1   2.0000    -118.605536     -3227.4207
   2   2.0000    -118.604206     -3227.3845
   3   2.0000     -12.321481      -335.2846
   4   2.0000     -12.318630      -335.2070
   5   2.0000     -12.317482      -335.1757
   6   2.0000      -9.570073      -260.4149
   7   2.0000      -9.570062      -260.4146
   8   2.0000      -9.570059      -260.4145
   9   2.0000      -9.567225      -260.3374
  10   2.0000      -9.567128      -260.3348
  11   2.0000      -9.567124      -260.3347
  12   2.0000      -9.566067      -260.3059
  13   2.0000      -9.565976      -260.3034
  14   2.0000      -9.565968      -260.3032
  15   2.0000      -1.288796       -35.0699
  16   2.0000      -1.278168       -34.7807
  17   2.0000      -1.269322       -34.5400
  18   2.0000      -0.634943       -17.2777
  19   2.0000      -0.614655       -16.7256
  20   2.0000      -0.600753       -16.3473
  21   2.0000      -0.596898       -16.2424
  22   2.0000      -0.590790       -16.0762
  23   2.0000      -0.582822       -15.8594
  24   2.0000      -0.582267       -15.8443
  25   2.0000      -0.571200       -15.5431
  26   2.0000      -0.549913       -14.9639
  27   0.0000       0.115242         3.1359
  28   0.0000       0.119598         3.2544
  29   0.0000       0.135706         3.6927
  30   0.0000       0.136078         3.7029
  31   0.0000       0.169690         4.6175

MULLIKEN ATOMIC CHARGES
-----------------------
   0 Ar:    0.000874
   1 Ar:   -0.000451
   2 Ar:   -0.000422
Sum of atomic charges:   -0.0000000

LOEWDIN ATOMIC CHARGES
----------------------
   0 Ar:   -0.003809
   1 Ar:    0.000567
   2 Ar:    0.003242

E(0)                                       ...  -1580.386361686
E(0)                                       ...  -1580.386361686
E(CORR)(strong-pairs)                      ...     -0.005367220
E(CORR)(weak-pairs)                        ...     -0.000136972
E(CORR)(corrected)                         ...     -0.005504192
E(TOT)                                     ...  -1580.391865878
FINAL SINGLE POINT ENERGY     -1580.391041754765

DIPOLE MOMENT
-------------

Method             : SCF
Type of density    : Electron Density
Multiplicity       :   1
Irrep              :   0
Energy             : -1580.3863616859380272 Eh
Relativity type    :
Basis              : AO
                                X                 Y                 Z
Electronic contribution:     -0.000436050       0.001386236      -0.000000000
Nuclear contribution   :     -0.000000000       0.000000000       0.000000000
                        -----------------------------------------
Total Dipole Moment    :     -0.000436050       0.001386236      -0.000000000
                        -----------------------------------------
Magnitude (a.u.)       :      0.001453199
Magnitude (Debye)      :      0.003693739

Rotational constants in cm-1:             0.114226             0.063435             0.040785
Rotational constants in MHz :          3424.395926          1901.734808          1222.706173

                             ****ORCA TERMINATED NORMALLY****
TOTAL RUN TIME: 0 days 0 hours 0 minutes 9 seconds 773 msec
