                         Program Version 6.0.0  -   RELEASE  -
|  1> # MP2 scan of the potential energy curve for Ar...Ar
|  2>                 ! HFLD aug-cc-pvdz aug-cc-pvdz/C verytightscf
|  3>                 *xyz 0 1
|  4>                 Ar(1)	0    0	0.00000000000000
|  5>                 Ar(2)	4.4	0    0.00000000000000
|  6>                 Ar(3)	2.9272727272727277	3.2849770745265925    0.00000000000000
|  7>                 **                         ****END OF INPUT****

CARTESIAN COORDINATES (ANGSTROEM)
---------------------------------
  Ar     0.000000    0.000000    0.000000
  Ar     4.400000    0.000000    0.000000
  Ar     2.927273    3.284977    0.000000

 Total Charge           Charge          ....    0
 Multiplicity           Mult            ....    1
 Number of Electrons    NEL             ....   54
 Basis Dimension        Dim             ....   81

ORBITAL ENERGIES
----------------

  NO   OCC          E(Eh)            E(eV)
   0   2.0000    -118.610545     -3227.5570
   1   2.0000    -118.610021     -3227.5428
   2   2.0000    -118.610021     -3227.5427
   3   2.0000     -12.322701      -335.3177
   4   2.0000     -12.322201      -335.3041
   5   2.0000     -12.322195      -335.3040
   6   2.0000      -9.571286      -260.4479
   7   2.0000      -9.571286      -260.4479
   8   2.0000      -9.571286      -260.4479
   9   2.0000      -9.570793      -260.4345
  10   2.0000      -9.570793      -260.4345
  11   2.0000      -9.570793      -260.4345
  12   2.0000      -9.570792      -260.4345
  13   2.0000      -9.570788      -260.4344
  14   2.0000      -9.570786      -260.4343
  15   2.0000      -1.279772       -34.8244
  16   2.0000      -1.278768       -34.7971
  17   2.0000      -1.277421       -34.7604
  18   2.0000      -0.602411       -16.3924
  19   2.0000      -0.595448       -16.2030
  20   2.0000      -0.593496       -16.1499
  21   2.0000      -0.592931       -16.1345
  22   2.0000      -0.592057       -16.1107
  23   2.0000      -0.590388       -16.0653
  24   2.0000      -0.589980       -16.0542
  25   2.0000      -0.589660       -16.0455
  26   2.0000      -0.581924       -15.8349
  27   0.0000       0.121466         3.3053
  28   0.0000       0.127843         3.4788
  29   0.0000       0.128349         3.4925
  30   0.0000       0.129521         3.5244
  31   0.0000       0.159652         4.3443

MULLIKEN ATOMIC CHARGES
-----------------------
   0 Ar:   -0.000205
   1 Ar:    0.000102
   2 Ar:    0.000102
Sum of atomic charges:   -0.0000000

LOEWDIN ATOMIC CHARGES
----------------------
   0 Ar:    0.000374
   1 Ar:   -0.000187
   2 Ar:   -0.000187

E(0)                                       ...  -1580.402235390
E(0)                                       ...  -1580.402235390
E(CORR)(strong-pairs)                      ...     -0.001070250
E(CORR)(weak-pairs)                        ...     -0.000180136
E(CORR)(corrected)                         ...     -0.001250385
E(TOT)                                     ...  -1580.403485776
FINAL SINGLE POINT ENERGY     -1580.403441437072

DIPOLE MOMENT
-------------

Method             : SCF
Type of density    : Electron Density
Multiplicity       :   1
Irrep              :   0
Energy             : -1580.4022353901320912 Eh
Relativity type    :
Basis              : AO
                                X                 Y                 Z
Electronic contribution:     -0.000118380      -0.000053090       0.000000000
Nuclear contribution   :     -0.000000000       0.000000000       0.000000000
                        -----------------------------------------
Total Dipole Moment    :     -0.000118380      -0.000053090       0.000000000
                        -----------------------------------------
Magnitude (a.u.)       :      0.000129739
Magnitude (Debye)      :      0.000329771

Rotational constants in cm-1:             0.065122             0.039267             0.024496
Rotational constants in MHz :          1952.304507          1177.196018           734.380798

                             ****ORCA TERMINATED NORMALLY****
TOTAL RUN TIME: 0 days 0 hours 0 minutes 9 seconds 976 msec
