                         Program Version 6.0.0  -   RELEASE  -
|  1> # MP2 scan of the potential energy curve for Ar...Ar
|  2>                 ! HFLD aug-cc-pvdz aug-cc-pvdz/C verytightscf
|  3>                 *xyz 0 1
|  4>                 Ar(1)	0    0	0.00000000000000
|  5>                 Ar(2)	4.8	0    0.00000000000000
|  6>                 Ar(3)	2.15	1.7937391114652095    0.00000000000000
|  7>                 **                         ****END OF INPUT****

CARTESIAN COORDINATES (ANGSTROEM)
---------------------------------
  Ar     0.000000    0.000000    0.000000
  Ar     4.800000    0.000000    0.000000
  Ar     2.150000    1.793739    0.000000

 Total Charge           Charge          ....    0
 Multiplicity           Mult            ....    1
 Number of Electrons    NEL             ....   54
 Basis Dimension        Dim             ....   81

ORBITAL ENERGIES
----------------

  NO   OCC          E(Eh)            E(eV)
   0   2.0000    -118.608941     -3227.5134
   1   2.0000    -118.605703     -3227.4252
   2   2.0000    -118.604076     -3227.3810
   3   2.0000     -12.321335      -335.2806
   4   2.0000     -12.318792      -335.2114
   5   2.0000     -12.317364      -335.1725
   6   2.0000      -9.569917      -260.4107
   7   2.0000      -9.569907      -260.4104
   8   2.0000      -9.569906      -260.4104
   9   2.0000      -9.567377      -260.3416
  10   2.0000      -9.567280      -260.3389
  11   2.0000      -9.567278      -260.3389
  12   2.0000      -9.565949      -260.3027
  13   2.0000      -9.565858      -260.3002
  14   2.0000      -9.565852      -260.3001
  15   2.0000      -1.288259       -35.0553
  16   2.0000      -1.278578       -34.7919
  17   2.0000      -1.268960       -34.5302
  18   2.0000      -0.633959       -17.2509
  19   2.0000      -0.613068       -16.6824
  20   2.0000      -0.600056       -16.3284
  21   2.0000      -0.591922       -16.1070
  22   2.0000      -0.591564       -16.0973
  23   2.0000      -0.590972       -16.0812
  24   2.0000      -0.581829       -15.8324
  25   2.0000      -0.570160       -15.5149
  26   2.0000      -0.549248       -14.9458
  27   0.0000       0.121809         3.3146
  28   0.0000       0.126794         3.4502
  29   0.0000       0.135085         3.6758
  30   0.0000       0.137067         3.7298
  31   0.0000       0.150920         4.1067

MULLIKEN ATOMIC CHARGES
-----------------------
   0 Ar:   -0.001035
   1 Ar:   -0.000502
   2 Ar:    0.001537
Sum of atomic charges:   -0.0000000

LOEWDIN ATOMIC CHARGES
----------------------
   0 Ar:    0.001764
   1 Ar:    0.001954
   2 Ar:   -0.003718

E(0)                                       ...  -1580.386867419
E(0)                                       ...  -1580.386867419
E(CORR)(strong-pairs)                      ...     -0.004972297
E(CORR)(weak-pairs)                        ...     -0.000208380
E(CORR)(corrected)                         ...     -0.005180677
E(TOT)                                     ...  -1580.392048096
FINAL SINGLE POINT ENERGY     -1580.391194410792

DIPOLE MOMENT
-------------

Method             : SCF
Type of density    : Electron Density
Multiplicity       :   1
Irrep              :   0
Energy             : -1580.3868674192510753 Eh
Relativity type    :
Basis              : AO
                                X                 Y                 Z
Electronic contribution:      0.000447277       0.002181964      -0.000000000
Nuclear contribution   :      0.000000000       0.000000000       0.000000000
                        -----------------------------------------
Total Dipole Moment    :      0.000447277       0.002181964      -0.000000000
                        -----------------------------------------
Magnitude (a.u.)       :      0.002227336
Magnitude (Debye)      :      0.005661437

Rotational constants in cm-1:             0.197605             0.036469             0.030787
Rotational constants in MHz :          5924.057234          1093.317008           922.976644

                             ****ORCA TERMINATED NORMALLY****
TOTAL RUN TIME: 0 days 0 hours 0 minutes 15 seconds 310 msec
