                         Program Version 6.0.0  -   RELEASE  -
|  1>
|  2>     ! HF MP2 aug-cc-pVTZ TightSCF Opt
|  3>
|  4>     * xyz 0 1
|  5>     Cl      1.104182     0.637500     0.000000
|  6>     H       0.000000     0.000000     0.000000
|  7>
|  8>     Cl      3.904182     0.637500     0.000000
|  9>     H       5.008364     0.000000     0.000000
| 10>     *
| 11>
| 12>     %geom
| 13>         Constraints
| 14>             { B 1 0 C }  # Fix H-Cl bond distance in the first HCl
| 15>             { B 3 2 C }  # Fix H-Cl bond distance in the second HCl
| 16>             { A 2 0 1 C }  # Fix the H1-Cl1-Cl3 angle
| 17>             { A 0 2 3 C }  # Fix the H2-Cl2-Cl3 angle
| 18>
| 19>         end
| 20>         Scan
| 21>             B 1 2 = 2.8, 5, 5  # Vary the Cl-Cl distance
| 22>         end
| 23>     end
| 24>
| 25>     %mp2
| 26>         Density relaxed
| 27>     end
| 28>
| 29>     %scf
| 30>         ConvForced true  # Ensure SCF convergence
| 31>     end
| 32>
| 33>                               ****END OF INPUT****
 Total Charge           Charge          ....    0
 Multiplicity           Mult            ....    1
 Number of Electrons    NEL             ....   36
MP2 TOTAL ENERGY:     -920.185235480 Eh
FINAL SINGLE POINT ENERGY      -920.185235480440
                    ***********************HURRAY********************
MP2 TOTAL ENERGY:     -920.185235359 Eh
FINAL SINGLE POINT ENERGY      -920.185235359092
MP2 TOTAL ENERGY:     -920.548803206 Eh
FINAL SINGLE POINT ENERGY      -920.548803205637
                    ***********************HURRAY********************
MP2 TOTAL ENERGY:     -920.548803186 Eh
FINAL SINGLE POINT ENERGY      -920.548803186040
MP2 TOTAL ENERGY:     -920.619888146 Eh
FINAL SINGLE POINT ENERGY      -920.619888145692
MP2 TOTAL ENERGY:     -920.619888093 Eh
FINAL SINGLE POINT ENERGY      -920.619888092783
MP2 TOTAL ENERGY:     -920.630089075 Eh
FINAL SINGLE POINT ENERGY      -920.630089074554
MP2 TOTAL ENERGY:     -920.630089107 Eh
FINAL SINGLE POINT ENERGY      -920.630089106702
MP2 TOTAL ENERGY:     -920.630825303 Eh
FINAL SINGLE POINT ENERGY      -920.630825303053

CARTESIAN COORDINATES (ANGSTROEM)
---------------------------------
  Cl     0.576677    0.637500    0.000000
  H     -0.527505    0.000000   -0.000000
  Cl     4.431687    0.637500   -0.000000
  H      5.535869    0.000000    0.000000

 Multiplicity           Mult            ....    1
 Number of Electrons    NEL             ....   36
 Basis Dimension        Dim             ....  146

ORBITAL ENERGIES
----------------

  NO   OCC          E(Eh)            E(eV)
   0   2.0000    -104.846931     -2853.0300
   1   2.0000    -104.846931     -2853.0300
   2   2.0000     -10.571814      -287.6737
   3   2.0000     -10.571813      -287.6737
   4   2.0000      -8.038933      -218.7505
   5   2.0000      -8.038932      -218.7505
   6   2.0000      -8.036784      -218.6920
   7   2.0000      -8.036784      -218.6920
   8   2.0000      -8.036782      -218.6920
   9   2.0000      -8.036782      -218.6919
  10   2.0000      -1.114971       -30.3399
  11   2.0000      -1.113428       -30.2979
  12   2.0000      -0.626932       -17.0597
  13   2.0000      -0.617853       -16.8126
  14   2.0000      -0.477481       -12.9929
  15   2.0000      -0.475417       -12.9368
  16   2.0000      -0.472129       -12.8473
  17   2.0000      -0.469818       -12.7844
  18   0.0000       0.029192         0.7944
  19   0.0000       0.036100         0.9823
  20   0.0000       0.106649         2.9021
  21   0.0000       0.111263         3.0276
  22   0.0000       0.131251         3.5715

MULLIKEN ATOMIC CHARGES
-----------------------
   0 Cl:   -0.189310
   1 H :    0.189310
   2 Cl:   -0.189310
   3 H :    0.189310
Sum of atomic charges:   -0.0000000

LOEWDIN ATOMIC CHARGES
----------------------
   0 Cl:    0.922196
   1 H :   -0.922196
   2 Cl:    0.922196
   3 H :   -0.922196

  Mayer bond orders larger than 0.100000
B(  0-Cl,  1-H ) :   1.0211 B(  2-Cl,  3-H ) :   1.0211

MP2 TOTAL ENERGY:     -920.630825314 Eh
FINAL SINGLE POINT ENERGY      -920.630825313724

DIPOLE MOMENT
-------------

Method             : MP2
Type of density    : Electron Density
Multiplicity       :   1
Level              : Relaxed density
Irrep              :   0
Energy             :     0.0000000000000000 Eh
Relativity type    :
Basis              : AO
                                X                 Y                 Z
Electronic contribution:      0.000000140       0.760021970      -0.000000000
Nuclear contribution   :     -0.000000223      -1.210416261       0.000000000
                        -----------------------------------------
Total Dipole Moment    :     -0.000000083      -0.450394291       0.000000000
                        -----------------------------------------
Magnitude (a.u.)       :      0.450394291
Magnitude (Debye)      :      1.144811309

Rotational constants in cm-1:            21.160296             0.059786             0.059618
Rotational constants in MHz :        634369.700284          1792.350057          1787.300214

                             ****ORCA TERMINATED NORMALLY****
TOTAL RUN TIME: 0 days 0 hours 7 minutes 9 seconds 130 msec
